# vtk DataFile Version 3.0
STAP++ Results
ASCII
DATASET UNSTRUCTURED_GRID
POINTS 4085 float
200 -10 0
200 10 0
150 10 0
150 -10 0
100 10 0
100 -10 0
50 10 0
50 -10 0
0 10 0
0 -10 0
-50 10 0
-50 -10 0
-100 10 0
-100 -10 0
-150 10 0
-150 -10 0
-200 10 0
-200 -10 0
-250 10 0
-250 -10 0
250 -10 0
250 10 0
200 -5 0
200 0 0
200 5 0
195 10 0
190 10 0
185 10 0
180 10 0
175 10 0
170 10 0
165 10 0
160 10 0
155 10 0
150 5 0
150 0 0
150 -5 0
155 -10 0
160 -10 0
165 -10 0
170 -10 0
175 -10 0
180 -10 0
185 -10 0
190 -10 0
195 -10 0
145 10 0
140 10 0
135 10 0
130 10 0
125 10 0
120 10 0
115 10 0
110 10 0
105 10 0
100 5 0
100 0 0
100 -5 0
105 -10 0
110 -10 0
115 -10 0
120 -10 0
125 -10 0
130 -10 0
135 -10 0
140 -10 0
145 -10 0
95 10 0
90 10 0
85 10 0
80 10 0
75 10 0
70 10 0
65 10 0
60 10 0
55 10 0
50 5 0
50 0 0
50 -5 0
55 -10 0
60 -10 0
65 -10 0
70 -10 0
75 -10 0
80 -10 0
85 -10 0
90 -10 0
95 -10 0
45 10 0
40 10 0
35 10 0
30 10 0
25 10 0
20 10 0
15 10 0
10 10 0
5 10 0
0 5 0
0 0 0
0 -5 0
5 -10 0
10 -10 0
15 -10 0
20 -10 0
25 -10 0
30 -10 0
35 -10 0
40 -10 0
45 -10 0
-5 10 0
-10 10 0
-15 10 0
-20 10 0
-25 10 0
-30 10 0
-35 10 0
-40 10 0
-45 10 0
-50 5 0
-50 0 0
-50 -5 0
-45 -10 0
-40 -10 0
-35 -10 0
-30 -10 0
-25 -10 0
-20 -10 0
-15 -10 0
-10 -10 0
-5 -10 0
-55 10 0
-60 10 0
-65 10 0
-70 10 0
-75 10 0
-80 10 0
-85 10 0
-90 10 0
-95 10 0
-100 5 0
-100 0 0
-100 -5 0
-95 -10 0
-90 -10 0
-85 -10 0
-80 -10 0
-75 -10 0
-70 -10 0
-65 -10 0
-60 -10 0
-55 -10 0
-105 10 0
-110 10 0
-115 10 0
-120 10 0
-125 10 0
-130 10 0
-135 10 0
-140 10 0
-145 10 0
-150 5 0
-150 0 0
-150 -5 0
-145 -10 0
-140 -10 0
-135 -10 0
-130 -10 0
-125 -10 0
-120 -10 0
-115 -10 0
-110 -10 0
-105 -10 0
-155 10 0
-160 10 0
-165 10 0
-170 10 0
-175 10 0
-180 10 0
-185 10 0
-190 10 0
-195 10 0
-200 5 0
-200 0 0
-200 -5 0
-195 -10 0
-190 -10 0
-185 -10 0
-180 -10 0
-175 -10 0
-170 -10 0
-165 -10 0
-160 -10 0
-155 -10 0
-205 10 0
-210 10 0
-215 10 0
-220 10 0
-225 10 0
-230 10 0
-235 10 0
-240 10 0
-245 10 0
-250 5 0
-250 0 0
-250 -5 0
-245 -10 0
-240 -10 0
-235 -10 0
-230 -10 0
-225 -10 0
-220 -10 0
-215 -10 0
-210 -10 0
-205 -10 0
205 -10 0
210 -10 0
215 -10 0
220 -10 0
225 -10 0
230 -10 0
235 -10 0
240 -10 0
245 -10 0
250 -5 0
250 0 0
250 5 0
245 10 0
240 10 0
235 10 0
230 10 0
225 10 0
220 10 0
215 10 0
210 10 0
205 10 0
195 -5 0
195 0 0
195 5 0
190 -5 0
190 0 0
190 5 0
185 -5 0
185 0 0
185 5 0
180 -5 0
180 0 0
180 5 0
175 -5 0
175 0 0
175 5 0
170 -5 0
170 0 0
170 5 0
165 -5 0
165 0 0
165 5 0
160 -5 0
160 0 0
160 5 0
155 -5 0
155 0 0
155 5 0
145 -5 0
145 0 0
145 5 0
140 -5 0
140 0 0
140 5 0
135 -5 0
135 0 0
135 5 0
130 -5 0
130 0 0
130 5 0
125 -5 0
125 0 0
125 5 0
120 -5 0
120 0 0
120 5 0
115 -5 0
115 0 0
115 5 0
110 -5 0
110 0 0
110 5 0
105 -5 0
105 0 0
105 5 0
95 -5 0
95 0 0
95 5 0
90 -5 0
90 0 0
90 5 0
85 -5 0
85 0 0
85 5 0
80 -5 0
80 0 0
80 5 0
75 -5 0
75 0 0
75 5 0
70 -5 0
70 0 0
70 5 0
65 -5 0
65 0 0
65 5 0
60 -5 0
60 0 0
60 5 0
55 -5 0
55 0 0
55 5 0
45 -5 0
45 0 0
45 5 0
40 -5 0
40 0 0
40 5 0
35 -5 0
35 0 0
35 5 0
30 -5 0
30 0 0
30 5 0
25 -5 0
25 0 0
25 5 0
20 -5 0
20 0 0
20 5 0
15 -5 0
15 0 0
15 5 0
10 -5 0
10 0 0
10 5 0
5 -5 0
5 0 0
5 5 0
-5 -5 0
-5 0 0
-5 5 0
-10 -5 0
-10 0 0
-10 5 0
-15 -5 0
-15 0 0
-15 5 0
-20 -5 0
-20 0 0
-20 5 0
-25 -5 0
-25 0 0
-25 5 0
-30 -5 0
-30 0 0
-30 5 0
-35 -5 0
-35 0 0
-35 5 0
-40 -5 0
-40 0 0
-40 5 0
-45 -5 0
-45 0 0
-45 5 0
-55 -5 0
-55 0 0
-55 5 0
-60 -5 0
-60 0 0
-60 5 0
-65 -5 0
-65 0 0
-65 5 0
-70 -5 0
-70 0 0
-70 5 0
-75 -5 0
-75 0 0
-75 5 0
-80 -5 0
-80 0 0
-80 5 0
-85 -5 0
-85 0 0
-85 5 0
-90 -5 0
-90 0 0
-90 5 0
-95 -5 0
-95 0 0
-95 5 0
-105 -5 0
-105 0 0
-105 5 0
-110 -5 0
-110 0 0
-110 5 0
-115 -5 0
-115 0 0
-115 5 0
-120 -5 0
-120 0 0
-120 5 0
-125 -5 0
-125 0 0
-125 5 0
-130 -5 0
-130 0 0
-130 5 0
-135 -5 0
-135 0 0
-135 5 0
-140 -5 0
-140 0 0
-140 5 0
-145 -5 0
-145 0 0
-145 5 0
-155 -5 0
-155 0 0
-155 5 0
-160 -5 0
-160 0 0
-160 5 0
-165 -5 0
-165 0 0
-165 5 0
-170 -5 0
-170 0 0
-170 5 0
-175 -5 0
-175 0 0
-175 5 0
-180 -5 0
-180 0 0
-180 5 0
-185 -5 0
-185 0 0
-185 5 0
-190 -5 0
-190 0 0
-190 5 0
-195 -5 0
-195 0 0
-195 5 0
-205 -5 0
-205 0 0
-205 5 0
-210 -5 0
-210 0 0
-210 5 0
-215 -5 0
-215 0 0
-215 5 0
-220 -5 0
-220 0 0
-220 5 0
-225 -5 0
-225 0 0
-225 5 0
-230 -5 0
-230 0 0
-230 5 0
-235 -5 0
-235 0 0
-235 5 0
-240 -5 0
-240 0 0
-240 5 0
-245 -5 0
-245 0 0
-245 5 0
205 5 0
205 0 0
205 -5 0
210 5 0
210 0 0
210 -5 0
215 5 0
215 0 0
215 -5 0
220 5 0
220 0 0
220 -5 0
225 5 0
225 0 0
225 -5 0
230 5 0
230 0 0
230 -5 0
235 5 0
235 0 0
235 -5 0
240 5 0
240 0 0
240 -5 0
245 5 0
245 0 0
245 -5 0
0 -10 -50
0 -20 -50
-20 -20 -50
-20 -10 -50
0 -20 150
-10 -20 150
-10 -10 150
0 -10 150
20 -10 -50
20 -20 -50
10 -10 150
10 -20 150
0 -15 -50
-6.66667 -20 -50
-13.3333 -20 -50
-20 -15 -50
-13.3333 -10 -50
-6.66667 -10 -50
0 -15 150
-6.66667 -20 150
-3.33333 -20 150
-10 -15 150
-3.33333 -10 150
-6.66667 -10 150
-19.75 -10 -45
-19.5 -10 -40
-19.25 -10 -35
-19 -10 -30
-18.75 -10 -25
-18.5 -10 -20
-18.25 -10 -15
-18 -10 -10
-17.75 -10 -5
-17.5 -10 0
-17.25 -10 5
-17 -10 10
-16.75 -10 15
-16.5 -10 20
-16.25 -10 25
-16 -10 30
-15.75 -10 35
-15.5 -10 40
-15.25 -10 45
-15 -10 50
-14.75 -10 55
-14.5 -10 60
-14.25 -10 65
-14 -10 70
-13.75 -10 75
-13.5 -10 80
-13.25 -10 85
-13 -10 90
-12.75 -10 95
-12.5 -10 100
-12.25 -10 105
-12 -10 110
-11.75 -10 115
-11.5 -10 120
-11.25 -10 125
-11 -10 130
-10.75 -10 135
-10.5 -10 140
-10.25 -10 145
0 -10 145
0 -10 140
0 -10 135
0 -10 130
0 -10 125
0 -10 120
0 -10 115
0 -10 110
0 -10 105
0 -10 100
0 -10 95
0 -10 90
0 -10 85
0 -10 80
0 -10 75
0 -10 70
0 -10 65
0 -10 60
0 -10 55
0 -10 50
0 -10 45
0 -10 40
0 -10 35
0 -10 30
0 -10 25
0 -10 20
0 -10 15
0 -10 10
0 -10 5
0 -10 -5
0 -10 -10
0 -10 -15
0 -10 -20
0 -10 -25
0 -10 -30
0 -10 -35
0 -10 -40
0 -10 -45
-10.25 -20 145
-10.5 -20 140
-10.75 -20 135
-11 -20 130
-11.25 -20 125
-11.5 -20 120
-11.75 -20 115
-12 -20 110
-12.25 -20 105
-12.5 -20 100
-12.75 -20 95
-13 -20 90
-13.25 -20 85
-13.5 -20 80
-13.75 -20 75
-14 -20 70
-14.25 -20 65
-14.5 -20 60
-14.75 -20 55
-15 -20 50
-15.25 -20 45
-15.5 -20 40
-15.75 -20 35
-16 -20 30
-16.25 -20 25
-16.5 -20 20
-16.75 -20 15
-17 -20 10
-17.25 -20 5
-17.5 -20 0
-17.75 -20 -5
-18 -20 -10
-18.25 -20 -15
-18.5 -20 -20
-18.75 -20 -25
-19 -20 -30
-19.25 -20 -35
-19.5 -20 -40
-19.75 -20 -45
0 -20 -45
0 -20 -40
0 -20 -35
0 -20 -30
0 -20 -25
0 -20 -20
0 -20 -15
0 -20 -10
0 -20 -5
0 -20 0
0 -20 5
0 -20 10
0 -20 15
0 -20 20
0 -20 25
0 -20 30
0 -20 35
0 -20 40
0 -20 45
0 -20 50
0 -20 55
0 -20 60
0 -20 65
0 -20 70
0 -20 75
0 -20 80
0 -20 85
0 -20 90
0 -20 95
0 -20 100
0 -20 105
0 -20 110
0 -20 115
0 -20 120
0 -20 125
0 -20 130
0 -20 135
0 -20 140
0 -20 145
6.66667 -10 -50
13.3333 -10 -50
20 -15 -50
13.3333 -20 -50
6.66667 -20 -50
6.66667 -10 150
3.33333 -10 150
10 -15 150
3.33333 -20 150
6.66667 -20 150
19.75 -20 -45
19.5 -20 -40
19.25 -20 -35
19 -20 -30
18.75 -20 -25
18.5 -20 -20
18.25 -20 -15
18 -20 -10
17.75 -20 -5
17.5 -20 0
17.25 -20 5
17 -20 10
16.75 -20 15
16.5 -20 20
16.25 -20 25
16 -20 30
15.75 -20 35
15.5 -20 40
15.25 -20 45
15 -20 50
14.75 -20 55
14.5 -20 60
14.25 -20 65
14 -20 70
13.75 -20 75
13.5 -20 80
13.25 -20 85
13 -20 90
12.75 -20 95
12.5 -20 100
12.25 -20 105
12 -20 110
11.75 -20 115
11.5 -20 120
11.25 -20 125
11 -20 130
10.75 -20 135
10.5 -20 140
10.25 -20 145
10.25 -10 145
10.5 -10 140
10.75 -10 135
11 -10 130
11.25 -10 125
11.5 -10 120
11.75 -10 115
12 -10 110
12.25 -10 105
12.5 -10 100
12.75 -10 95
13 -10 90
13.25 -10 85
13.5 -10 80
13.75 -10 75
14 -10 70
14.25 -10 65
14.5 -10 60
14.75 -10 55
15 -10 50
15.25 -10 45
15.5 -10 40
15.75 -10 35
16 -10 30
16.25 -10 25
16.5 -10 20
16.75 -10 15
17 -10 10
17.25 -10 5
17.5 -10 0
17.75 -10 -5
18 -10 -10
18.25 -10 -15
18.5 -10 -20
18.75 -10 -25
19 -10 -30
19.25 -10 -35
19.5 -10 -40
19.75 -10 -45
-6.66667 -15 -50
-13.3333 -15 -50
-3.33333 -15 150
-6.66667 -15 150
-6.58333 -10 -45
-13.1667 -10 -45
-6.5 -10 -40
-13 -10 -40
-6.41667 -10 -35
-12.8333 -10 -35
-6.33333 -10 -30
-12.6667 -10 -30
-6.25 -10 -25
-12.5 -10 -25
-6.16667 -10 -20
-12.3333 -10 -20
-6.08333 -10 -15
-12.1667 -10 -15
-6 -10 -10
-12 -10 -10
-5.91667 -10 -5
-11.8333 -10 -5
-5.83333 -10 0
-11.6667 -10 0
-5.75 -10 5
-11.5 -10 5
-5.66667 -10 10
-11.3333 -10 10
-5.58333 -10 15
-11.1667 -10 15
-5.5 -10 20
-11 -10 20
-5.41667 -10 25
-10.8333 -10 25
-5.33333 -10 30
-10.6667 -10 30
-5.25 -10 35
-10.5 -10 35
-5.16667 -10 40
-10.3333 -10 40
-5.08333 -10 45
-10.1667 -10 45
-5 -10 50
-10 -10 50
-4.91667 -10 55
-9.83333 -10 55
-4.83333 -10 60
-9.66667 -10 60
-4.75 -10 65
-9.5 -10 65
-4.66667 -10 70
-9.33333 -10 70
-4.58333 -10 75
-9.16667 -10 75
-4.5 -10 80
-9 -10 80
-4.41667 -10 85
-8.83333 -10 85
-4.33333 -10 90
-8.66667 -10 90
-4.25 -10 95
-8.5 -10 95
-4.16667 -10 100
-8.33333 -10 100
-4.08333 -10 105
-8.16667 -10 105
-4 -10 110
-8 -10 110
-3.91667 -10 115
-7.83333 -10 115
-3.83333 -10 120
-7.66667 -10 120
-3.75 -10 125
-7.5 -10 125
-3.66667 -10 130
-7.33333 -10 130
-3.58333 -10 135
-7.16667 -10 135
-3.5 -10 140
-7 -10 140
-3.41667 -10 145
-6.83333 -10 145
-6.58333 -20 -45
-13.1667 -20 -45
-6.5 -20 -40
-13 -20 -40
-6.41667 -20 -35
-12.8333 -20 -35
-6.33333 -20 -30
-12.6667 -20 -30
-6.25 -20 -25
-12.5 -20 -25
-6.16667 -20 -20
-12.3333 -20 -20
-6.08333 -20 -15
-12.1667 -20 -15
-6 -20 -10
-12 -20 -10
-5.91667 -20 -5
-11.8333 -20 -5
-5.83333 -20 0
-11.6667 -20 0
-5.75 -20 5
-11.5 -20 5
-5.66667 -20 10
-11.3333 -20 10
-5.58333 -20 15
-11.1667 -20 15
-5.5 -20 20
-11 -20 20
-5.41667 -20 25
-10.8333 -20 25
-5.33333 -20 30
-10.6667 -20 30
-5.25 -20 35
-10.5 -20 35
-5.16667 -20 40
-10.3333 -20 40
-5.08333 -20 45
-10.1667 -20 45
-5 -20 50
-10 -20 50
-4.91667 -20 55
-9.83333 -20 55
-4.83333 -20 60
-9.66667 -20 60
-4.75 -20 65
-9.5 -20 65
-4.66667 -20 70
-9.33333 -20 70
-4.58333 -20 75
-9.16667 -20 75
-4.5 -20 80
-9 -20 80
-4.41667 -20 85
-8.83333 -20 85
-4.33333 -20 90
-8.66667 -20 90
-4.25 -20 95
-8.5 -20 95
-4.16667 -20 100
-8.33333 -20 100
-4.08333 -20 105
-8.16667 -20 105
-4 -20 110
-8 -20 110
-3.91667 -20 115
[...]
POINT_DATA 4085
VECTORS Displacement float
0 0 -0.148451
0 0 -0.148451
0 0 -0.265019
0 0 -0.265019
0 0 -0.324488
0 0 -0.324488
0 0 -0.272483
0 0 -0.272483
0 0 -0.144406
0 0 -0.144406
0 0 -0.272431
0 0 -0.272431
0 0 -0.324387
0 0 -0.324387
0 0 -0.264769
0 0 -0.264769
0 0 -0.14805
0 0 -0.14805
0 0 -0.0565044
0 0 -0.0565044
0 0 -0.0575637
0 0 -0.0575637
0 0 -0.309267
0 0 -0.208244
0 0 -0.309267
0 0 -0.336677
0 0 -0.321569
0 0 -0.611475
0 0 -0.549584
0 0 -0.776145
0 0 -0.580669
0 0 -0.71237
0 0 -0.408094
0 0 -0.52541
0 0 -0.527258
0 0 -0.325341
0 0 -0.527258
0 0 -0.52541
0 0 -0.408094
0 0 -0.71237
0 0 -0.580669
0 0 -0.776145
0 0 -0.549584
0 0 -0.611475
0 0 -0.321569
0 0 -0.336677
0 0 -0.548771
0 0 -0.430316
0 0 -0.806726
0 0 -0.645805
0 0 -0.952117
0 0 -0.662893
0 0 -0.868627
0 0 -0.476916
0 0 -0.663437
0 0 -0.658768
0 0 -0.384371
0 0 -0.658768
0 0 -0.663437
0 0 -0.476916
0 0 -0.868627
0 0 -0.662893
0 0 -0.952117
0 0 -0.645805
0 0 -0.806726
0 0 -0.430316
0 0 -0.548771
0 0 -0.673192
0 0 -0.475997
0 0 -0.904311
0 0 -0.666359
0 0 -1.01617
0 0 -0.6545
0 0 -0.898302
0 0 -0.441698
0 0 -0.663659
0 0 -0.650217
0 0 -0.332346
0 0 -0.650217
0 0 -0.663659
0 0 -0.441698
0 0 -0.898302
0 0 -0.6545
0 0 -1.01617
0 0 -0.666359
0 0 -0.904311
0 0 -0.475997
0 0 -0.673192
0 0 -0.655875
0 0 -0.407346
0 0 -0.858292
0 0 -0.572766
0 0 -0.939254
0 0 -0.537522
0 0 -0.795979
0 0 -0.310854
0 0 -0.549692
0 0 -0.538317
0 0 -0.207192
0 0 -0.538317
0 0 -0.549692
0 0 -0.310854
0 0 -0.795979
0 0 -0.537522
0 0 -0.939254
0 0 -0.572766
0 0 -0.858292
0 0 -0.407346
0 0 -0.655875
0 0 -0.549689
0 0 -0.310846
0 0 -0.795965
0 0 -0.537502
0 0 -0.939227
0 0 -0.572733
0 0 -0.858252
0 0 -0.407301
0 0 -0.655825
0 0 -0.650164
0 0 -0.332294
0 0 -0.650164
0 0 -0.655825
0 0 -0.407301
0 0 -0.858252
0 0 -0.572733
0 0 -0.939227
0 0 -0.537502
0 0 -0.795965
0 0 -0.310846
0 0 -0.549689
0 0 -0.663604
0 0 -0.44164
0 0 -0.898239
0 0 -0.654433
0 0 -1.01609
0 0 -0.666281
0 0 -0.904225
0 0 -0.475907
0 0 -0.673094
0 0 -0.658665
0 0 -0.384269
0 0 -0.658665
0 0 -0.673094
0 0 -0.475907
0 0 -0.904225
0 0 -0.666281
0 0 -1.01609
0 0 -0.654433
0 0 -0.898239
0 0 -0.44164
0 0 -0.663604
0 0 -0.663327
0 0 -0.476796
0 0 -0.868489
0 0 -0.662738
0 0 -0.95194
0 0 -0.645611
0 0 -0.806511
0 0 -0.430087
0 0 -0.548526
0 0 -0.527006
0 0 -0.325092
0 0 -0.527006
0 0 -0.548526
0 0 -0.430087
0 0 -0.806511
0 0 -0.645611
0 0 -0.95194
0 0 -0.662738
0 0 -0.868489
0 0 -0.476796
0 0 -0.663327
0 0 -0.525152
0 0 -0.40783
0 0 -0.712093
0 0 -0.580383
0 0 -0.775842
0 0 -0.549269
0 0 -0.611138
0 0 -0.321214
0 0 -0.336293
0 0 -0.30886
0 0 -0.207837
0 0 -0.30886
0 0 -0.336293
0 0 -0.321214
0 0 -0.611138
0 0 -0.549269
0 0 -0.775842
0 0 -0.580383
0 0 -0.712093
0 0 -0.40783
0 0 -0.525152
0 0 -0.301072
0 0 -0.280934
0 0 -0.468398
0 0 -0.439795
0 0 -0.515595
0 0 -0.403242
0 0 -0.348807
0 0 -0.191757
0 0 -0.105121
0 0 -0.0577683
0 0 -0.0569286
0 0 -0.0577683
0 0 -0.105121
0 0 -0.191757
0 0 -0.348807
0 0 -0.403242
0 0 -0.515595
0 0 -0.439795
0 0 -0.468398
0 0 -0.280934
0 0 -0.301072
0 0 -0.301511
0 0 -0.281436
0 0 -0.468986
0 0 -0.440472
0 0 -0.51637
0 0 -0.404107
0 0 -0.349756
0 0 -0.192768
0 0 -0.106172
0 0 -0.0588364
0 0 -0.0579995
0 0 -0.0588364
0 0 -0.106172
0 0 -0.192768
0 0 -0.349756
0 0 -0.404107
0 0 -0.51637
0 0 -0.440472
0 0 -0.468986
0 0 -0.281436
0 0 -0.301511
0 0 -0.234699
0 0 -0.384727
0 0 -0.234699
0 0 -0.485749
0 0 -0.34195
0 0 -0.485749
0 0 -0.449193
0 0 -0.610048
0 0 -0.449193
0 0 -0.708423
0 0 -0.53514
0 0 -0.708423
0 0 -0.580096
0 0 -0.756866
0 0 -0.580096
0 0 -0.758837
0 0 -0.565046
0 0 -0.758837
0 0 -0.50786
0 0 -0.70849
0 0 -0.50786
0 0 -0.629972
0 0 -0.424523
0 0 -0.629972
0 0 -0.337871
0 0 -0.566899
0 0 -0.337871
0 0 -0.347751
0 0 -0.595633
0 0 -0.347751
0 0 -0.689306
0 0 -0.45
0 0 -0.689306
0 0 -0.551657
0 0 -0.804846
0 0 -0.551657
0 0 -0.894039
0 0 -0.631121
0 0 -0.894039
0 0 -0.66934
0 0 -0.932796
0 0 -0.66934
0 0 -0.925
0 0 -0.647439
0 0 -0.925
0 0 -0.583491
0 0 -0.865171
0 0 -0.583491
0 0 -0.777409
0 0 -0.494118
0 0 -0.777409
0 0 -0.401787
0 0 -0.706442
0 0 -0.401787
0 0 -0.400997
0 0 -0.717629
0 0 -0.400997
0 0 -0.800261
0 0 -0.494036
0 0 -0.800261
0 0 -0.584803
0 0 -0.901333
0 0 -0.584803
0 0 -0.974889
0 0 -0.651078
0 0 -0.974889
0 0 -0.675445
0 0 -0.99674
0 0 -0.675445
0 0 -0.971888
0 0 -0.63944
0 0 -0.971888
0 0 -0.561744
0 0 -0.89578
0 0 -0.561744
0 0 -0.792585
0 0 -0.460468
0 0 -0.792585
0 0 -0.357552
0 0 -0.70929
0 0 -0.357552
0 0 -0.341257
0 0 -0.697742
0 0 -0.341257
0 0 -0.768308
0 0 -0.42404
0 0 -0.768308
0 0 -0.503559
0 0 -0.854745
0 0 -0.503559
0 0 -0.913307
0 0 -0.557581
0 0 -0.913307
0 0 -0.569994
0 0 -0.920507
0 0 -0.569994
0 0 -0.881992
0 0 -0.523661
0 0 -0.881992
0 0 -0.437348
0 0 -0.795042
0 0 -0.437348
0 0 -0.683485
0 0 -0.331373
0 0 -0.683485
0 0 -0.227137
0 0 -0.596418
0 0 -0.227137
0 0 -0.227133
0 0 -0.596414
0 0 -0.227133
0 0 -0.683476
0 0 -0.331365
0 0 -0.683476
0 0 -0.437334
0 0 -0.795028
0 0 -0.437334
0 0 -0.881972
0 0 -0.52364
0 0 -0.881972
0 0 -0.569968
0 0 -0.92048
0 0 -0.569968
0 0 -0.913274
0 0 -0.557548
0 0 -0.913274
0 0 -0.50352
0 0 -0.854706
0 0 -0.50352
0 0 -0.768263
0 0 -0.423996
0 0 -0.768263
0 0 -0.341208
0 0 -0.697693
0 0 -0.341208
0 0 -0.357498
0 0 -0.709234
0 0 -0.357498
0 0 -0.792526
0 0 -0.460409
0 0 -0.792526
0 0 -0.561682
0 0 -0.895716
0 0 -0.561682
0 0 -0.97182
0 0 -0.639372
0 0 -0.97182
0 0 -0.675373
0 0 -0.996666
0 0 -0.675373
0 0 -0.974809
0 0 -0.651
0 0 -0.974809
0 0 -0.584719
0 0 -0.901247
0 0 -0.584719
0 0 -0.80017
0 0 -0.493946
0 0 -0.80017
0 0 -0.400901
0 0 -0.717532
0 0 -0.400901
0 0 -0.401677
0 0 -0.706329
0 0 -0.401677
0 0 -0.777284
0 0 -0.493995
0 0 -0.777284
0 0 -0.583353
0 0 -0.865031
0 0 -0.583353
0 0 -0.924842
0 0 -0.647283
0 0 -0.924842
0 0 -0.669166
0 0 -0.932619
0 0 -0.669166
0 0 -0.893843
0 0 -0.630927
0 0 -0.893843
0 0 -0.551445
0 0 -0.804632
0 0 -0.551445
0 0 -0.689077
0 0 -0.449773
0 0 -0.689077
0 0 -0.347511
0 0 -0.595392
0 0 -0.347511
0 0 -0.337614
0 0 -0.56664
0 0 -0.337614
0 0 -0.629704
0 0 -0.424258
0 0 -0.629704
0 0 -0.507585
0 0 -0.708212
0 0 -0.507585
0 0 -0.758548
0 0 -0.564759
0 0 -0.758548
0 0 -0.579796
0 0 -0.756562
0 0 -0.579796
0 0 -0.708104
0 0 -0.534823
0 0 -0.708104
0 0 -0.448858
0 0 -0.60971
0 0 -0.448858
0 0 -0.485391
0 0 -0.341595
0 0 -0.485391
0 0 -0.23432
0 0 -0.384347
0 0 -0.23432
0 0 -0.216079
0 0 -0.34065
0 0 -0.216079
0 0 -0.395395
0 0 -0.296461
0 0 -0.395395
0 0 -0.373286
0 0 -0.464214
0 0 -0.373286
0 0 -0.50553
0 0 -0.424028
0 0 -0.50553
0 0 -0.434356
0 0 -0.495654
0 0 -0.434356
0 0 -0.442395
0 0 -0.38605
0 0 -0.442395
0 0 -0.301808
0 0 -0.339473
0 0 -0.301808
0 0 -0.219094
0 0 -0.191982
0 0 -0.219094
0 0 -0.0958453
0 0 -0.108126
0 0 -0.0958453
0 0 -0.216526
0 0 -0.341104
0 0 -0.216526
0 0 -0.395908
0 0 -0.296974
0 0 -0.395908
0 0 -0.373875
0 0 -0.464808
0 0 -0.373875
0 0 -0.506212
0 0 -0.424708
0 0 -0.506212
0 0 -0.435128
0 0 -0.496429
0 0 -0.435128
0 0 -0.44326
0 0 -0.386911
0 0 -0.44326
0 0 -0.302751
0 0 -0.340417
0 0 -0.302751
0 0 -0.220104
0 0 -0.192989
0 0 -0.220104
0 0 -0.0968959
0 0 -0.109181
0 0 -0.0968959
0 0 0
0 0 0
0 0 0
0 0 0
0.000100941 -0.234025 -0.515663
-0.000234285 -0.233631 -0.514918
0.000127438 -0.233255 -0.491066
0.000103802 -0.234837 -0.487547
0 0 0
0 0 0
7.86704e-05 -0.233259 -0.491086
0.00043619 -0.233635 -0.514938
0 0 0
0 0 0
0 0 0
0 0 0
0 0 0
0 0 0
0.00010188 -0.234095 -0.504154
-0.000127911 -0.23381 -0.515344
-3.87342e-06 -0.233995 -0.515741
-7.97289e-05 -0.233439 -0.503108
0.000110312 -0.23397 -0.49116
0.000153843 -0.233472 -0.491271
-0.0109227 0.00565248 -0.0162218
-0.0148046 0.00531491 -0.0306057
-0.0167199 0.00587377 -0.0448636
-0.0171085 0.00673432 -0.0590243
-0.0168828 0.00741695 -0.073378
-0.0164846 0.00759946 -0.0877132
-0.0160938 0.00708331 -0.102159
-0.0158854 0.00572694 -0.116701
-0.0158085 0.00354414 -0.13138
-0.0158581 0.000607997 -0.146363
-0.0159233 -0.00293106 -0.161549
-0.0159152 -0.00690525 -0.177049
-0.0158268 -0.0111913 -0.192729
-0.0156369 -0.0157164 -0.208568
-0.0153907 -0.0204755 -0.224472
-0.0150978 -0.0254753 -0.240371
-0.0147642 -0.0307236 -0.256211
-0.0143926 -0.0362271 -0.271942
-0.0139845 -0.0419922 -0.287518
-0.0135412 -0.0480246 -0.302892
-0.0130639 -0.0543295 -0.318018
-0.012554 -0.0609124 -0.332851
-0.0120131 -0.0677784 -0.347343
-0.0114427 -0.0749328 -0.361446
-0.0108441 -0.082381 -0.37511
-0.010219 -0.0901286 -0.388286
-0.00956862 -0.0981811 -0.400922
-0.00889446 -0.106545 -0.412965
-0.00819791 -0.115225 -0.424363
-0.00748037 -0.124229 -0.43506
-0.00674326 -0.133563 -0.444999
-0.00598795 -0.143235 -0.454123
-0.00521569 -0.153251 -0.462372
-0.0044273 -0.163619 -0.469683
-0.0036223 -0.174346 -0.475993
-0.00279952 -0.185441 -0.48124
-0.00194753 -0.196905 -0.485362
-0.00109064 -0.208756 -0.488363
-0.000311259 -0.220994 -0.490285
9.78321e-05 -0.221216 -0.490432
9.27411e-05 -0.209064 -0.489352
8.75957e-05 -0.1972 -0.486667
8.25296e-05 -0.185734 -0.482746
7.75463e-05 -0.174644 -0.477665
7.26644e-05 -0.163921 -0.471511
6.78958e-05 -0.153558 -0.46435
6.32509e-05 -0.143546 -0.456248
5.87384e-05 -0.133878 -0.447265
5.43656e-05 -0.124547 -0.43746
5.01386e-05 -0.115547 -0.426892
4.60626e-05 -0.10687 -0.415616
4.21418e-05 -0.0985096 -0.403686
3.83796e-05 -0.0904604 -0.391157
3.47788e-05 -0.0827163 -0.37808
3.13417e-05 -0.0752715 -0.364506
2.80699e-05 -0.0681208 -0.350484
2.49645e-05 -0.0612589 -0.336065
2.20264e-05 -0.0546811 -0.321296
1.9256e-05 -0.0483828 -0.306224
1.66536e-05 -0.0423599 -0.290896
1.4219e-05 -0.036609 -0.275357
1.19521e-05 -0.0311275 -0.259652
9.85283e-06 -0.0259137 -0.243822
7.92128e-06 -0.0209678 -0.227909
6.15787e-06 -0.0162926 -0.211947
4.56639e-06 -0.0118858 -0.195954
3.13335e-06 -0.00775707 -0.179916
1.93498e-06 -0.00389912 -0.16338
1.20605e-07 0.00306452 -0.133192
-5.0715e-07 0.00529542 -0.119556
-9.24784e-07 0.00673865 -0.105545
-1.23916e-06 0.00752222 -0.0912168
-1.33265e-06 0.00763599 -0.0777417
-2.89716e-06 0.00686385 -0.067742
-1.09353e-06 0.0059588 -0.046785
-8.16264e-07 0.00578421 -0.0296133
-4.2434e-07 0.00597106 -0.0142382
-0.000845519 -0.221848 -0.513979
-0.00162621 -0.21039 -0.511602
-0.00246017 -0.199247 -0.507929
-0.0033036 -0.188458 -0.503081
-0.00412717 -0.178013 -0.497129
-0.00493157 -0.167899 -0.49013
-0.00571897 -0.158106 -0.482145
-0.00649004 -0.148629 -0.473238
-0.00724407 -0.139459 -0.463469
-0.00797987 -0.130592 -0.452897
-0.00869608 -0.122021 -0.441581
-0.00939129 -0.11374 -0.429576
-0.0100641 -0.105743 -0.416937
-0.0107132 -0.0980265 -0.403717
-0.0113371 -0.0905836 -0.389968
-0.0119345 -0.0834098 -0.375741
-0.0125041 -0.0765002 -0.361085
-0.0130446 -0.06985 -0.34605
-0.0135549 -0.0634544 -0.330684
-0.014034 -0.0573088 -0.315033
-0.0144816 -0.0514082 -0.299144
-0.0148981 -0.0457475 -0.283062
-0.015285 -0.0403205 -0.266834
-0.0156449 -0.0351201 -0.250505
-0.0159808 -0.0301372 -0.234125
-0.0162918 -0.0253617 -0.217743
-0.0165647 -0.0207897 -0.2014
-0.0167635 -0.0164421 -0.185119
-0.0168537 -0.0123948 -0.168879
-0.0168315 -0.00876676 -0.152649
-0.0167855 -0.0057325 -0.136415
-0.0168183 -0.00345501 -0.120247
-0.0169509 -0.0020035 -0.104209
-0.0171768 -0.00135715 -0.0884017
-0.0174222 -0.0013788 -0.0729555
-0.0174942 -0.00187338 -0.0579982
-0.0169423 -0.00262817 -0.0435949
-0.0148706 -0.00362607 -0.0295631
-0.0108163 -0.00509392 -0.0156367
-1.96012e-07 -0.00581788 -0.0137465
-3.69003e-07 -0.0051268 -0.0284052
-4.32406e-07 -0.00395731 -0.043725
-4.35967e-07 -0.00263668 -0.0597066
-2.32619e-07 -0.00161421 -0.0755464
5.29202e-08 -0.00142357 -0.0917288
4.9014e-07 -0.0022513 -0.107583
1.0274e-06 -0.00371747 -0.123447
1.71758e-06 -0.00616948 -0.139635
2.5348e-06 -0.00951982 -0.155686
3.5696e-06 -0.0134112 -0.172018
4.746e-06 -0.0174905 -0.18817
6.10389e-06 -0.021611 -0.204593
7.61346e-06 -0.0260222 -0.22107
9.28263e-06 -0.0306894 -0.237537
1.11128e-05 -0.0356052 -0.253955
1.31056e-05 -0.0407641 -0.27029
1.52619e-05 -0.0461646 -0.286503
1.75827e-05 -0.0518075 -0.302554
2.00685e-05 -0.057695 -0.318402
2.27194e-05 -0.0638303 -0.334
2.55353e-05 -0.0702169 -0.349304
2.85158e-05 -0.0768591 -0.364267
3.16599e-05 -0.0837611 -0.378842
3.49663e-05 -0.0909275 -0.39298
3.84332e-05 -0.0983632 -0.406631
4.20583e-05 -0.106073 -0.419745
4.58388e-05 -0.114062 -0.432271
4.97709e-05 -0.122336 -0.444155
5.38502e-05 -0.1309 -0.455343
5.80715e-05 -0.13976 -0.46578
6.24283e-05 -0.148923 -0.475409
6.69133e-05 -0.158393 -0.484171
7.15176e-05 -0.168179 -0.492006
7.62311e-05 -0.178285 -0.498849
8.10422e-05 -0.18872 -0.504632
8.59371e-05 -0.199486 -0.509278
9.09045e-05 -0.210568 -0.512725
9.58907e-05 -0.22213 -0.51501
0 0 0
0 0 0
0 0 0
0 0 0
0 0 0
5.23207e-05 -0.233475 -0.491284
9.61953e-05 -0.233972 -0.491167
0.000283725 -0.233443 -0.503128
0.000205704 -0.233997 -0.515748
0.000329798 -0.233812 -0.515358
0.0108159 -0.00509336 -0.0156362
0.0148701 -0.00362477 -0.0295627
0.0169416 -0.00262597 -0.0435948
0.0174937 -0.00187031 -0.0579988
0.0174221 -0.00137496 -0.0729569
0.0171773 -0.00135271 -0.088404
0.0169523 -0.0019986 -0.104212
0.0168209 -0.00344979 -0.120251
0.0167894 -0.00572709 -0.13642
0.0168372 -0.00876131 -0.152655
0.0168614 -0.0123895 -0.168886
0.0167735 -0.016437 -0.185128
0.0165774 -0.0207849 -0.20141
0.0163076 -0.0253572 -0.217753
0.0159999 -0.0301331 -0.234136
0.0156676 -0.0351163 -0.250517
0.0153117 -0.0403171 -0.266847
0.0149291 -0.0457445 -0.283076
0.0145173 -0.0514057 -0.299159
0.0140746 -0.0573067 -0.315049
0.0136007 -0.0634527 -0.3307
0.0130961 -0.0698486 -0.346067
0.0125616 -0.0764992 -0.361103
0.0119982 -0.0834092 -0.375759
0.0114074 -0.0905833 -0.389987
0.0107904 -0.0980266 -0.403736
0.0101486 -0.105744 -0.416957
0.00948328 -0.113741 -0.429596
0.00879591 -0.122022 -0.441602
0.00808784 -0.130594 -0.452918
0.00736046 -0.139461 -0.46349
0.00661512 -0.148631 -0.473259
0.005853 -0.158109 -0.482167
0.00507478 -0.167901 -0.490151
0.00427978 -0.178016 -0.49715
0.0034658 -0.188461 -0.503103
0.00263214 -0.199251 -0.50795
0.00180807 -0.210394 -0.511623
0.00103737 -0.221852 -0.513999
0.000507136 -0.220998 -0.490305
0.00127618 -0.20876 -0.488384
0.00212281 -0.196909 -0.485383
0.00296469 -0.185444 -0.481261
0.00377753 -0.174349 -0.476015
0.00457279 -0.163621 -0.469704
0.00535167 -0.153253 -0.462393
0.00611466 -0.143237 -0.454144
0.00686096 -0.133565 -0.44502
0.00758935 -0.12423 -0.435081
0.00829846 -0.115226 -0.424383
0.00898688 -0.106545 -0.412985
0.00965322 -0.0981811 -0.400941
0.0102961 -0.0901281 -0.388305
0.0109141 -0.0823802 -0.375128
0.0115057 -0.0749317 -0.361463
0.0120696 -0.0677769 -0.34736
0.0126043 -0.0609105 -0.332868
0.0131083 -0.0543272 -0.318034
0.0135801 -0.0480218 -0.302907
0.0140183 -0.0419891 -0.287532
0.0144215 -0.0362236 -0.271956
0.0147886 -0.0307196 -0.256224
0.015118 -0.025471 -0.240383
0.015407 -0.0204707 -0.224483
0.0156497 -0.0157112 -0.208578
0.0158364 -0.0111858 -0.192739
0.015922 -0.00689941 -0.177058
0.0159277 -0.00292501 -0.161556
0.0158604 0.000614126 -0.14637
0.0158092 0.00355019 -0.131386
0.0158849 0.00573276 -0.116706
0.0160924 0.00708878 -0.102163
0.0164826 0.00760443 -0.0877165
0.0168806 0.00742127 -0.0733805
0.0171063 0.00673781 -0.0590262
0.0167181 0.00587629 -0.0448649
0.0148034 0.00531639 -0.0306065
0.0109222 0.00565305 -0.0162221
0 0 0
0 0 0
-3.87503e-05 -0.233963 -0.503494
-3.73596e-05 -0.233647 -0.50344
-0.00255382 0.00596167 -0.0141797
-0.0055659 0.0057257 -0.0139933
-0.00447209 0.00580996 -0.0293543
-0.00950486 0.00578793 -0.0294161
-0.00588826 0.00613035 -0.0453591
-0.0110835 0.00616626 -0.0449174
-0.00578882 0.00685191 -0.0600816
-0.0115693 0.00681317 -0.0602773
-0.00534187 0.00744831 -0.0761613
-0.0114492 0.00732371 -0.0749517
-0.00556636 0.00744877 -0.0907128
-0.0110781 0.00738874 -0.089598
-0.00544516 0.0067304 -0.104991
-0.0108309 0.00675843 -0.104012
-0.00530767 0.0052695 -0.119308
-0.0106263 0.00533961 -0.11843
-0.00502224 0.00301406 -0.133723
-0.010597 0.00311066 -0.133099
-0.00534191 -7.92691e-05 -0.149199
-0.0106185 0.000164279 -0.147914
-0.00565384 -0.00370088 -0.163883
-0.0106688 -0.00337053 -0.163267
-0.00538116 -0.00763385 -0.179671
-0.0106949 -0.00731726 -0.178764
-0.00530636 -0.0117966 -0.195616
-0.0105861 -0.0115439 -0.194551
-0.00522954 -0.0162205 -0.211575
-0.0104496 -0.0160183 -0.21045
-0.00514132 -0.0209097 -0.227527
-0.0102783 -0.0207406 -0.226379
-0.00503915 -0.0258635 -0.243437
-0.0100785 -0.0257154 -0.242283
-0.00492419 -0.0310821 -0.259267
-0.00985253 -0.0309471 -0.258116
-0.00479698 -0.0365667 -0.274975
-0.00960182 -0.03644 -0.273834
-0.00465777 -0.0423195 -0.290518
-0.009327 -0.0421982 -0.289389
-0.00450677 -0.0483436 -0.305851
-0.00902868 -0.0482258 -0.304738
-0.00434433 -0.0546428 -0.32093
-0.00870763 -0.0545275 -0.319835
-0.00417088 -0.0612213 -0.335706
-0.00836478 -0.0611079 -0.334633
-0.00398694 -0.0680836 -0.350133
-0.00800114 -0.0679718 -0.349084
-0.00379303 -0.0752348 -0.364163
-0.00761774 -0.0751243 -0.363142
-0.00358966 -0.08268 -0.377747
-0.00721558 -0.0825707 -0.376756
-0.00337733 -0.0904245 -0.390835
-0.00679566 -0.0903165 -0.389877
-0.00315653 -0.0984741 -0.403376
-0.00635894 -0.0983672 -0.402454
-0.00292774 -0.106835 -0.415319
-0.00590635 -0.106729 -0.414434
-0.00269144 -0.115512 -0.426608
-0.00543885 -0.115408 -0.425764
-0.0024481 -0.124513 -0.437191
-0.00495739 -0.12441 -0.436389
-0.00219821 -0.133844 -0.44701
-0.0044629 -0.133742 -0.446254
-0.00194224 -0.143512 -0.456009
-0.00395634 -0.143411 -0.455299
-0.00168057 -0.153524 -0.464127
-0.00343851 -0.153425 -0.463466
-0.0014133 -0.163888 -0.471305
-0.00290973 -0.16379 -0.470694
-0.00113965 -0.174612 -0.477477
-0.00236938 -0.174515 -0.476919
-0.000857811 -0.185702 -0.482577
-0.00181373 -0.185607 -0.482077
-0.000560187 -0.197171 -0.486532
-0.00123946 -0.197075 -0.486105
-0.000268351 -0.209019 -0.489232
-0.000618837 -0.208931 -0.488929
0.00027376 -0.221295 -0.490501
-5.14979e-05 -0.221194 -0.490668
-0.00264555 -0.00568709 -0.0136506
-0.00563472 -0.00521791 -0.013399
-0.00456928 -0.00477842 -0.0282123
-0.00962639 -0.00430781 -0.0283315
-0.00566348 -0.00371643 -0.043793
-0.0113249 -0.00322367 -0.0437022
-0.00591072 -0.00255845 -0.0594839
-0.0118001 -0.00231695 -0.059129
-0.00578801 -0.00169172 -0.0754355
-0.0116803 -0.00170373 -0.074629
-0.0056624 -0.00160138 -0.0913323
-0.0114168 -0.00163094 -0.0903167
-0.00554378 -0.0023021 -0.107226
-0.0112177 -0.00230437 -0.106152
-0.00549064 -0.00382639 -0.123166
-0.0111085 -0.00379661 -0.122121
-0.00548686 -0.00619816 -0.139216
-0.0111196 -0.00613414 -0.138207
-0.0055956 -0.00945442 -0.15544
-0.0112119 -0.00922307 -0.154375
-0.00569797 -0.0132687 -0.17161
-0.0112933 -0.0128814 -0.170631
-0.00567735 -0.0172826 -0.187902
-0.0112698 -0.0169152 -0.186916
-0.00560058 -0.021499 -0.204277
-0.0111269 -0.0211984 -0.203258
-0.00548426 -0.0259383 -0.220721
-0.0109246 -0.0257047 -0.219645
-0.00536146 -0.0306229 -0.237169
-0.0106975 -0.0304306 -0.236054
-0.00523562 -0.0355484 -0.253578
-0.0104591 -0.0353815 -0.252442
-0.00510597 -0.0407132 -0.269909
-0.0102092 -0.0405616 -0.268766
-0.00497014 -0.0461172 -0.286122
-0.0099445 -0.0459753 -0.284982
-0.00482608 -0.0517624 -0.302177
-0.00966183 -0.0516268 -0.301045
-0.00467252 -0.0576515 -0.318028
-0.00935938 -0.0575204 -0.31691
-0.00450884 -0.0637879 -0.333632
-0.00903639 -0.0636603 -0.332531
-0.00433494 -0.0701755 -0.348943
-0.00869289 -0.0700509 -0.347863
-0.004151 -0.0768185 -0.363914
-0.00832932 -0.0766965 -0.362857
-0.00395734 -0.0837213 -0.378498
-0.00794641 -0.0836018 -0.377468
-0.00375436 -0.0908885 -0.392645
-0.00754497 -0.0907713 -0.391645
-0.00354251 -0.0983248 -0.406307
-0.00712588 -0.09821 -0.40534
-0.00332222 -0.106035 -0.419433
-0.00669006 -0.105923 -0.418501
-0.00309397 -0.114025 -0.431971
-0.00623841 -0.113915 -0.431077
-0.00285821 -0.1223 -0.443869
-0.00577185 -0.122192 -0.443015
-0.00261542 -0.130865 -0.455071
-0.00529132 -0.130759 -0.45426
-0.00236607 -0.139726 -0.465523
-0.00479777 -0.139623 -0.464757
-0.00211063 -0.148889 -0.475168
-0.0042921 -0.148788 -0.474448
-0.00184944 -0.15836 -0.483946
-0.0037751 -0.158262 -0.483274
-0.00158252 -0.168146 -0.491797
-0.00324698 -0.16805 -0.491175