# vtk DataFile Version 3.0
STAP++ Results
ASCII
DATASET UNSTRUCTURED_GRID
POINTS 4085 float
200 -10 0
200 10 0
150 10 0
150 -10 0
100 10 0
100 -10 0
50 10 0
50 -10 0
0 10 0
0 -10 0
-50 10 0
-50 -10 0
-100 10 0
-100 -10 0
-150 10 0
-150 -10 0
-200 10 0
-200 -10 0
-250 10 0
-250 -10 0
250 -10 0
250 10 0
200 -5 0
200 0 0
200 5 0
195 10 0
190 10 0
185 10 0
180 10 0
175 10 0
170 10 0
165 10 0
160 10 0
155 10 0
150 5 0
150 0 0
150 -5 0
155 -10 0
160 -10 0
165 -10 0
170 -10 0
175 -10 0
180 -10 0
185 -10 0
190 -10 0
195 -10 0
145 10 0
140 10 0
135 10 0
130 10 0
125 10 0
120 10 0
115 10 0
110 10 0
105 10 0
100 5 0
100 0 0
100 -5 0
105 -10 0
110 -10 0
115 -10 0
120 -10 0
125 -10 0
130 -10 0
135 -10 0
140 -10 0
145 -10 0
95 10 0
90 10 0
85 10 0
80 10 0
75 10 0
70 10 0
65 10 0
60 10 0
55 10 0
50 5 0
50 0 0
50 -5 0
55 -10 0
60 -10 0
65 -10 0
70 -10 0
75 -10 0
80 -10 0
85 -10 0
90 -10 0
95 -10 0
45 10 0
40 10 0
35 10 0
30 10 0
25 10 0
20 10 0
15 10 0
10 10 0
5 10 0
0 5 0
0 0 0
0 -5 0
5 -10 0
10 -10 0
15 -10 0
20 -10 0
25 -10 0
30 -10 0
35 -10 0
40 -10 0
45 -10 0
-5 10 0
-10 10 0
-15 10 0
-20 10 0
-25 10 0
-30 10 0
-35 10 0
-40 10 0
-45 10 0
-50 5 0
-50 0 0
-50 -5 0
-45 -10 0
-40 -10 0
-35 -10 0
-30 -10 0
-25 -10 0
-20 -10 0
-15 -10 0
-10 -10 0
-5 -10 0
-55 10 0
-60 10 0
-65 10 0
-70 10 0
-75 10 0
-80 10 0
-85 10 0
-90 10 0
-95 10 0
-100 5 0
-100 0 0
-100 -5 0
-95 -10 0
-90 -10 0
-85 -10 0
-80 -10 0
-75 -10 0
-70 -10 0
-65 -10 0
-60 -10 0
-55 -10 0
-105 10 0
-110 10 0
-115 10 0
-120 10 0
-125 10 0
-130 10 0
-135 10 0
-140 10 0
-145 10 0
-150 5 0
-150 0 0
-150 -5 0
-145 -10 0
-140 -10 0
-135 -10 0
-130 -10 0
-125 -10 0
-120 -10 0
-115 -10 0
-110 -10 0
-105 -10 0
-155 10 0
-160 10 0
-165 10 0
-170 10 0
-175 10 0
-180 10 0
-185 10 0
-190 10 0
-195 10 0
-200 5 0
-200 0 0
-200 -5 0
-195 -10 0
-190 -10 0
-185 -10 0
-180 -10 0
-175 -10 0
-170 -10 0
-165 -10 0
-160 -10 0
-155 -10 0
-205 10 0
-210 10 0
-215 10 0
-220 10 0
-225 10 0
-230 10 0
-235 10 0
-240 10 0
-245 10 0
-250 5 0
-250 0 0
-250 -5 0
-245 -10 0
-240 -10 0
-235 -10 0
-230 -10 0
-225 -10 0
-220 -10 0
-215 -10 0
-210 -10 0
-205 -10 0
205 -10 0
210 -10 0
215 -10 0
220 -10 0
225 -10 0
230 -10 0
235 -10 0
240 -10 0
245 -10 0
250 -5 0
250 0 0
250 5 0
245 10 0
240 10 0
235 10 0
230 10 0
225 10 0
220 10 0
215 10 0
210 10 0
205 10 0
195 -5 0
195 0 0
195 5 0
190 -5 0
190 0 0
190 5 0
185 -5 0
185 0 0
185 5 0
180 -5 0
180 0 0
180 5 0
175 -5 0
175 0 0
175 5 0
170 -5 0
170 0 0
170 5 0
165 -5 0
165 0 0
165 5 0
160 -5 0
160 0 0
160 5 0
155 -5 0
155 0 0
155 5 0
145 -5 0
145 0 0
145 5 0
140 -5 0
140 0 0
140 5 0
135 -5 0
135 0 0
135 5 0
130 -5 0
130 0 0
130 5 0
125 -5 0
125 0 0
125 5 0
120 -5 0
120 0 0
120 5 0
115 -5 0
115 0 0
115 5 0
110 -5 0
110 0 0
110 5 0
105 -5 0
105 0 0
105 5 0
95 -5 0
95 0 0
95 5 0
90 -5 0
90 0 0
90 5 0
85 -5 0
85 0 0
85 5 0
80 -5 0
80 0 0
80 5 0
75 -5 0
75 0 0
75 5 0
70 -5 0
70 0 0
70 5 0
65 -5 0
65 0 0
65 5 0
60 -5 0
60 0 0
60 5 0
55 -5 0
55 0 0
55 5 0
45 -5 0
45 0 0
45 5 0
40 -5 0
40 0 0
40 5 0
35 -5 0
35 0 0
35 5 0
30 -5 0
30 0 0
30 5 0
25 -5 0
25 0 0
25 5 0
20 -5 0
20 0 0
20 5 0
15 -5 0
15 0 0
15 5 0
10 -5 0
10 0 0
10 5 0
5 -5 0
5 0 0
5 5 0
-5 -5 0
-5 0 0
-5 5 0
-10 -5 0
-10 0 0
-10 5 0
-15 -5 0
-15 0 0
-15 5 0
-20 -5 0
-20 0 0
-20 5 0
-25 -5 0
-25 0 0
-25 5 0
-30 -5 0
-30 0 0
-30 5 0
-35 -5 0
-35 0 0
-35 5 0
-40 -5 0
-40 0 0
-40 5 0
-45 -5 0
-45 0 0
-45 5 0
-55 -5 0
-55 0 0
-55 5 0
-60 -5 0
-60 0 0
-60 5 0
-65 -5 0
-65 0 0
-65 5 0
-70 -5 0
-70 0 0
-70 5 0
-75 -5 0
-75 0 0
-75 5 0
-80 -5 0
-80 0 0
-80 5 0
-85 -5 0
-85 0 0
-85 5 0
-90 -5 0
-90 0 0
-90 5 0
-95 -5 0
-95 0 0
-95 5 0
-105 -5 0
-105 0 0
-105 5 0
-110 -5 0
-110 0 0
-110 5 0
-115 -5 0
-115 0 0
-115 5 0
-120 -5 0
-120 0 0
-120 5 0
-125 -5 0
-125 0 0
-125 5 0
-130 -5 0
-130 0 0
-130 5 0
-135 -5 0
-135 0 0
-135 5 0
-140 -5 0
-140 0 0
-140 5 0
-145 -5 0
-145 0 0
-145 5 0
-155 -5 0
-155 0 0
-155 5 0
-160 -5 0
-160 0 0
-160 5 0
-165 -5 0
-165 0 0
-165 5 0
-170 -5 0
-170 0 0
-170 5 0
-175 -5 0
-175 0 0
-175 5 0
-180 -5 0
-180 0 0
-180 5 0
-185 -5 0
-185 0 0
-185 5 0
-190 -5 0
-190 0 0
-190 5 0
-195 -5 0
-195 0 0
-195 5 0
-205 -5 0
-205 0 0
-205 5 0
-210 -5 0
-210 0 0
-210 5 0
-215 -5 0
-215 0 0
-215 5 0
-220 -5 0
-220 0 0
-220 5 0
-225 -5 0
-225 0 0
-225 5 0
-230 -5 0
-230 0 0
-230 5 0
-235 -5 0
-235 0 0
-235 5 0
-240 -5 0
-240 0 0
-240 5 0
-245 -5 0
-245 0 0
-245 5 0
205 5 0
205 0 0
205 -5 0
210 5 0
210 0 0
210 -5 0
215 5 0
215 0 0
215 -5 0
220 5 0
220 0 0
220 -5 0
225 5 0
225 0 0
225 -5 0
230 5 0
230 0 0
230 -5 0
235 5 0
235 0 0
235 -5 0
240 5 0
240 0 0
240 -5 0
245 5 0
245 0 0
245 -5 0
0 -10 -50
0 -20 -50
-20 -20 -50
-20 -10 -50
0 -20 150
-10 -20 150
-10 -10 150
0 -10 150
20 -10 -50
20 -20 -50
10 -10 150
10 -20 150
0 -15 -50
-6.66667 -20 -50
-13.3333 -20 -50
-20 -15 -50
-13.3333 -10 -50
-6.66667 -10 -50
0 -15 150
-6.66667 -20 150
-3.33333 -20 150
-10 -15 150
-3.33333 -10 150
-6.66667 -10 150
-19.75 -10 -45
-19.5 -10 -40
-19.25 -10 -35
-19 -10 -30
-18.75 -10 -25
-18.5 -10 -20
-18.25 -10 -15
-18 -10 -10
-17.75 -10 -5
-17.5 -10 0
-17.25 -10 5
-17 -10 10
-16.75 -10 15
-16.5 -10 20
-16.25 -10 25
-16 -10 30
-15.75 -10 35
-15.5 -10 40
-15.25 -10 45
-15 -10 50
-14.75 -10 55
-14.5 -10 60
-14.25 -10 65
-14 -10 70
-13.75 -10 75
-13.5 -10 80
-13.25 -10 85
-13 -10 90
-12.75 -10 95
-12.5 -10 100
-12.25 -10 105
-12 -10 110
-11.75 -10 115
-11.5 -10 120
-11.25 -10 125
-11 -10 130
-10.75 -10 135
-10.5 -10 140
-10.25 -10 145
0 -10 145
0 -10 140
0 -10 135
0 -10 130
0 -10 125
0 -10 120
0 -10 115
0 -10 110
0 -10 105
0 -10 100
0 -10 95
0 -10 90
0 -10 85
0 -10 80
0 -10 75
0 -10 70
0 -10 65
0 -10 60
0 -10 55
0 -10 50
0 -10 45
0 -10 40
0 -10 35
0 -10 30
0 -10 25
0 -10 20
0 -10 15
0 -10 10
0 -10 5
0 -10 -5
0 -10 -10
0 -10 -15
0 -10 -20
0 -10 -25
0 -10 -30
0 -10 -35
0 -10 -40
0 -10 -45
-10.25 -20 145
-10.5 -20 140
-10.75 -20 135
-11 -20 130
-11.25 -20 125
-11.5 -20 120
-11.75 -20 115
-12 -20 110
-12.25 -20 105
-12.5 -20 100
-12.75 -20 95
-13 -20 90
-13.25 -20 85
-13.5 -20 80
-13.75 -20 75
-14 -20 70
-14.25 -20 65
-14.5 -20 60
-14.75 -20 55
-15 -20 50
-15.25 -20 45
-15.5 -20 40
-15.75 -20 35
-16 -20 30
-16.25 -20 25
-16.5 -20 20
-16.75 -20 15
-17 -20 10
-17.25 -20 5
-17.5 -20 0
-17.75 -20 -5
-18 -20 -10
-18.25 -20 -15
-18.5 -20 -20
-18.75 -20 -25
-19 -20 -30
-19.25 -20 -35
-19.5 -20 -40
-19.75 -20 -45
0 -20 -45
0 -20 -40
0 -20 -35
0 -20 -30
0 -20 -25
0 -20 -20
0 -20 -15
0 -20 -10
0 -20 -5
0 -20 0
0 -20 5
0 -20 10
0 -20 15
0 -20 20
0 -20 25
0 -20 30
0 -20 35
0 -20 40
0 -20 45
0 -20 50
0 -20 55
0 -20 60
0 -20 65
0 -20 70
0 -20 75
0 -20 80
0 -20 85
0 -20 90
0 -20 95
0 -20 100
0 -20 105
0 -20 110
0 -20 115
0 -20 120
0 -20 125
0 -20 130
0 -20 135
0 -20 140
0 -20 145
6.66667 -10 -50
13.3333 -10 -50
20 -15 -50
13.3333 -20 -50
6.66667 -20 -50
6.66667 -10 150
3.33333 -10 150
10 -15 150
3.33333 -20 150
6.66667 -20 150
19.75 -20 -45
19.5 -20 -40
19.25 -20 -35
19 -20 -30
18.75 -20 -25
18.5 -20 -20
18.25 -20 -15
18 -20 -10
17.75 -20 -5
17.5 -20 0
17.25 -20 5
17 -20 10
16.75 -20 15
16.5 -20 20
16.25 -20 25
16 -20 30
15.75 -20 35
15.5 -20 40
15.25 -20 45
15 -20 50
14.75 -20 55
14.5 -20 60
14.25 -20 65
14 -20 70
13.75 -20 75
13.5 -20 80
13.25 -20 85
13 -20 90
12.75 -20 95
12.5 -20 100
12.25 -20 105
12 -20 110
11.75 -20 115
11.5 -20 120
11.25 -20 125
11 -20 130
10.75 -20 135
10.5 -20 140
10.25 -20 145
10.25 -10 145
10.5 -10 140
10.75 -10 135
11 -10 130
11.25 -10 125
11.5 -10 120
11.75 -10 115
12 -10 110
12.25 -10 105
12.5 -10 100
12.75 -10 95
13 -10 90
13.25 -10 85
13.5 -10 80
13.75 -10 75
14 -10 70
14.25 -10 65
14.5 -10 60
14.75 -10 55
15 -10 50
15.25 -10 45
15.5 -10 40
15.75 -10 35
16 -10 30
16.25 -10 25
16.5 -10 20
16.75 -10 15
17 -10 10
17.25 -10 5
17.5 -10 0
17.75 -10 -5
18 -10 -10
18.25 -10 -15
18.5 -10 -20
18.75 -10 -25
19 -10 -30
19.25 -10 -35
19.5 -10 -40
19.75 -10 -45
-6.66667 -15 -50
-13.3333 -15 -50
-3.33333 -15 150
-6.66667 -15 150
-6.58333 -10 -45
-13.1667 -10 -45
-6.5 -10 -40
-13 -10 -40
-6.41667 -10 -35
-12.8333 -10 -35
-6.33333 -10 -30
-12.6667 -10 -30
-6.25 -10 -25
-12.5 -10 -25
-6.16667 -10 -20
-12.3333 -10 -20
-6.08333 -10 -15
-12.1667 -10 -15
-6 -10 -10
-12 -10 -10
-5.91667 -10 -5
-11.8333 -10 -5
-5.83333 -10 0
-11.6667 -10 0
-5.75 -10 5
-11.5 -10 5
-5.66667 -10 10
-11.3333 -10 10
-5.58333 -10 15
-11.1667 -10 15
-5.5 -10 20
-11 -10 20
-5.41667 -10 25
-10.8333 -10 25
-5.33333 -10 30
-10.6667 -10 30
-5.25 -10 35
-10.5 -10 35
-5.16667 -10 40
-10.3333 -10 40
-5.08333 -10 45
-10.1667 -10 45
-5 -10 50
-10 -10 50
-4.91667 -10 55
-9.83333 -10 55
-4.83333 -10 60
-9.66667 -10 60
-4.75 -10 65
-9.5 -10 65
-4.66667 -10 70
-9.33333 -10 70
-4.58333 -10 75
-9.16667 -10 75
-4.5 -10 80
-9 -10 80
-4.41667 -10 85
-8.83333 -10 85
-4.33333 -10 90
-8.66667 -10 90
-4.25 -10 95
-8.5 -10 95
-4.16667 -10 100
-8.33333 -10 100
-4.08333 -10 105
-8.16667 -10 105
-4 -10 110
-8 -10 110
-3.91667 -10 115
-7.83333 -10 115
-3.83333 -10 120
-7.66667 -10 120
-3.75 -10 125
-7.5 -10 125
-3.66667 -10 130
-7.33333 -10 130
-3.58333 -10 135
-7.16667 -10 135
-3.5 -10 140
-7 -10 140
-3.41667 -10 145
-6.83333 -10 145
-6.58333 -20 -45
-13.1667 -20 -45
-6.5 -20 -40
-13 -20 -40
-6.41667 -20 -35
-12.8333 -20 -35
-6.33333 -20 -30
-12.6667 -20 -30
-6.25 -20 -25
-12.5 -20 -25
-6.16667 -20 -20
-12.3333 -20 -20
-6.08333 -20 -15
-12.1667 -20 -15
-6 -20 -10
-12 -20 -10
-5.91667 -20 -5
-11.8333 -20 -5
-5.83333 -20 0
-11.6667 -20 0
-5.75 -20 5
-11.5 -20 5
-5.66667 -20 10
-11.3333 -20 10
-5.58333 -20 15
-11.1667 -20 15
-5.5 -20 20
-11 -20 20
-5.41667 -20 25
-10.8333 -20 25
-5.33333 -20 30
-10.6667 -20 30
-5.25 -20 35
-10.5 -20 35
-5.16667 -20 40
-10.3333 -20 40
-5.08333 -20 45
-10.1667 -20 45
-5 -20 50
-10 -20 50
-4.91667 -20 55
-9.83333 -20 55
-4.83333 -20 60
-9.66667 -20 60
-4.75 -20 65
-9.5 -20 65
-4.66667 -20 70
-9.33333 -20 70
-4.58333 -20 75
-9.16667 -20 75
-4.5 -20 80
-9 -20 80
-4.41667 -20 85
-8.83333 -20 85
-4.33333 -20 90
-8.66667 -20 90
-4.25 -20 95
-8.5 -20 95
-4.16667 -20 100
-8.33333 -20 100
-4.08333 -20 105
-8.16667 -20 105
-4 -20 110
-8 -20 110
-3.91667 -20 115
[...]
POINT_DATA 4085
VECTORS Displacement float
-0.871629 4.04662 -1.79367
-0.85568 -3.42883 -1.77427
-1.4711 0.210472 -3.13275
-1.49679 1.31892 -3.17008
-0.230827 0.366858 -3.40267
-0.215129 1.60098 -3.40601
0.778561 0.651027 -3.66803
0.915707 1.08704 -3.63129
-0.472342 0.34005 -4.29455
-0.538111 0.974519 -4.3492
-3.00041 -0.697722 -5.06282
-2.77881 -0.382861 -5.20125
-1.25066 -2.66418 -7.05329
-1.22473 -1.46017 -7.12812
0.503945 -4.43169 -9.04908
0.458022 -3.4274 -9.05449
-0.159439 -9.77929 -9.17665
-0.179313 -2.15025 -9.18787
-82.2451 209.934 126.089
-82.2571 209.88 126.091
74.7392 51.7117 126.097
74.7397 51.8053 126.082
0 0 -253.408
0 0 -0.787446
0 0 -253.398
0 0 -256.117
0 0 -5.54667
0 0 -258.878
0 0 -6.89266
0 0 -259.11
0 0 -6.23334
0 0 -257.839
0 0 -4.58914
0 0 -256.124
0 0 -255.66
0 0 -3.33496
0 0 -255.678
0 0 -256.163
0 0 -4.62592
0 0 -257.874
0 0 -6.26504
0 0 -259.139
0 0 -6.91887
0 0 -258.901
0 0 -5.56772
0 0 -256.136
0 0 -255.201
0 0 -2.65846
0 0 -255.043
0 0 -2.71242
0 0 -255.24
0 0 -2.97552
0 0 -255.53
0 0 -3.24115
0 0 -255.76
0 0 -255.826
0 0 -3.40887
0 0 -255.826
0 0 -255.764
0 0 -3.24764
0 0 -255.54
0 0 -2.98978
0 0 -255.259
0 0 -2.73481
0 0 -255.07
0 0 -2.68891
0 0 -255.235
0 0 -255.886
0 0 -3.54508
0 0 -256.041
0 0 -3.65483
0 0 -256.101
0 0 -3.65559
0 0 -256.065
0 0 -3.59997
0 0 -256.036
0 0 -256.151
0 0 -3.71498
0 0 -256.131
0 0 -255.989
0 0 -3.5552
0 0 -256.025
0 0 -3.62256
0 0 -256.075
0 0 -3.63545
0 0 -256.029
0 0 -3.53902
0 0 -255.886
0 0 -256.261
0 0 -3.97297
0 0 -256.561
0 0 -4.23023
0 0 -256.754
0 0 -4.3443
0 0 -256.795
0 0 -4.32704
0 0 -256.754
0 0 -256.777
0 0 -4.36292
0 0 -256.808
0 0 -256.797
0 0 -4.36223
0 0 -256.821
0 0 -4.36278
0 0 -256.764
0 0 -4.23242
0 0 -256.555
0 0 -3.95828
0 0 -256.238
0 0 -256.796
0 0 -4.50782
0 0 -257.145
0 0 -4.89133
0 0 -257.502
0 0 -5.18207
0 0 -257.693
0 0 -5.26204
0 0 -257.659
0 0 -257.592
0 0 -5.20989
0 0 -257.661
0 0 -257.778
0 0 -5.37336
0 0 -257.797
0 0 -5.28105
0 0 -257.595
0 0 -4.97945
0 0 -257.228
0 0 -4.58437
0 0 -256.865
0 0 -257.441
0 0 -5.19225
0 0 -257.897
0 0 -5.79151
0 0 -258.549
0 0 -6.43825
0 0 -259.123
0 0 -6.90898
0 0 -259.453
0 0 -259.474
0 0 -7.08606
0 0 -259.511
0 0 -259.53
0 0 -6.99575
0 0 -259.219
0 0 -6.54569
0 0 -258.667
0 0 -5.92021
0 0 -258.036
0 0 -5.33946
0 0 -257.593
0 0 -259.453
0 0 -7.12977
0 0 -259.632
0 0 -7.3583
0 0 -259.895
0 0 -7.67869
0 0 -260.282
0 0 -8.18567
0 0 -260.949
0 0 -261.548
0 0 -9.23512
0 0 -261.551
0 0 -260.961
0 0 -8.2049
0 0 -260.309
0 0 -7.71353
0 0 -259.937
0 0 -7.40884
0 0 -259.691
0 0 -7.19541
0 0 -259.526
0 0 -262.168
0 0 -10.8876
0 0 -264.374
0 0 -13.0523
0 0 -266.156
0 0 -14.1762
0 0 -266.299
0 0 -13.0772
0 0 -263.613
0 0 -260.717
0 0 -8.10609
0 0 -260.723
0 0 -263.625
0 0 -13.0882
0 0 -266.308
0 0 -14.1843
0 0 -266.163
0 0 -13.0573
0 0 -264.377
0 0 -10.89
0 0 -262.171
0 0 -257.433
0 0 2.32918
0 0 -240.055
0 0 24.327
0 0 -213.97
0 0 53.9118
0 0 -181.488
0 0 88.6722
0 0 -145.078
82.2545 -209.947 -126.203
-82.2482 209.905 126.09
82.2432 -209.928 -126.193
0 0 -145.055
0 0 88.7008
0 0 -181.463
0 0 53.9314
0 0 -213.956
0 0 24.3347
0 0 -240.053
0 0 2.3251
0 0 -257.442
0 0 -250.336
0 0 9.03103
0 0 -233.931
0 0 29.8086
0 0 -209.279
0 0 57.7781
0 0 -178.559
0 0 90.6606
0 0 -144.1
-74.7486 -51.6923 -126.209
74.7259 51.7617 126.095
-74.7671 -51.7208 -126.211
0 0 -144.063
0 0 90.7244
0 0 -178.498
0 0 57.8355
0 0 -209.229
0 0 29.8521
0 0 -233.894
0 0 9.06057
0 0 -250.312
0 0 -3.64632
0 0 -255.966
0 0 -3.63663
0 0 -257.669
0 0 -5.25311
0 0 -257.659
0 0 -6.31886
0 0 -258.588
0 0 -6.30709
0 0 -259.066
0 0 -6.64322
0 0 -259.053
0 0 -6.6205
0 0 -258.923
0 0 -6.60602
0 0 -258.524
0 0 -6.11972
0 0 -258.508
0 0 -5.45702
0 0 -257.81
0 0 -5.43984
0 0 -257.029
0 0 -4.65428
0 0 -257.01
0 0 -3.88419
0 0 -256.299
0 0 -3.86507
0 0 -2.92925
0 0 -255.346
0 0 -2.91201
0 0 -255.149
0 0 -2.76822
0 0 -255.134
0 0 -2.70963
0 0 -255.121
0 0 -2.69641
0 0 -255.163
0 0 -2.76425
0 0 -255.152
0 0 -2.86305
0 0 -255.272
0 0 -2.85389
0 0 -255.402
0 0 -2.99043
0 0 -255.395
0 0 -3.12219
0 0 -255.532
0 0 -3.11706
0 0 -255.655
0 0 -3.23567
0 0 -255.652
0 0 -3.33374
0 0 -255.747
0 0 -3.3322
0 0 -3.4735
0 0 -255.902
0 0 -3.47431
0 0 -255.968
0 0 -3.54452
0 0 -255.971
0 0 -3.59886
0 0 -256.03
0 0 -3.60518
0 0 -256.065
0 0 -3.63757
0 0 -256.075
0 0 -3.64395
0 0 -256.083
0 0 -3.65708
0 0 -256.067
0 0 -3.64135
0 0 -256.084
0 0 -3.60876
0 0 -256.061
0 0 -3.62847
0 0 -256.032
0 0 -3.61389
0 0 -256.054
0 0 -3.6099
0 0 -256.082
0 0 -3.6329
0 0 -3.81846
0 0 -256.276
0 0 -3.83164
0 0 -256.412
0 0 -3.97306
0 0 -256.419
0 0 -4.10658
0 0 -256.553
0 0 -4.10964
0 0 -256.668
0 0 -4.21864
0 0 -256.667
0 0 -4.30312
0 0 -256.744
0 0 -4.29794
0 0 -256.795
0 0 -4.34061
0 0 -256.786
0 0 -4.36134
0 0 -256.801
0 0 -4.34795
0 0 -256.802
0 0 -4.34632
0 0 -256.785
0 0 -4.34684
0 0 -256.783
0 0 -4.32358
0 0 -4.44246
0 0 -256.886
0 0 -4.40765
0 0 -257.034
0 0 -4.57591
0 0 -256.996
0 0 -4.768
0 0 -257.196
0 0 -4.7267
0 0 -257.397
0 0 -4.92927
0 0 -257.353
0 0 -5.11496
0 0 -257.531
0 0 -5.06819
0 0 -257.68
0 0 -5.2071
0 0 -257.63
0 0 -5.30889
0 0 -257.717
0 0 -5.2565
0 0 -257.764
0 0 -5.29038
0 0 -257.709
0 0 -5.2881
0 0 -257.687
0 0 -5.22677
0 0 -5.2275
0 0 -257.667
0 0 -5.15332
0 0 -257.799
0 0 -5.35282
0 0 -257.725
0 0 -5.60686
0 0 -258.015
0 0 -5.53752
0 0 -258.328
0 0 -5.87521
0 0 -258.264
0 0 -6.21159
0 0 -258.605
0 0 -6.15253
0 0 -258.924
0 0 -6.47241
0 0 -258.87
0 0 -6.75311
0 0 -259.138
0 0 -6.70467
0 0 -259.356
0 0 -6.90882
0 0 -259.312
0 0 -7.05699
0 0 -259.432
0 0 -7.01755
0 0 -7.13657
0 0 -259.537
0 0 -7.10106
0 0 -259.602
0 0 -7.19241
0 0 -259.57
0 0 -7.29478
0 0 -259.685
0 0 -7.26566
0 0 -259.807
0 0 -7.40631
0 0 -259.782
0 0 -7.55554
0 0 -259.943
0 0 -7.53419
0 0 -260.119
0 0 -7.73213
0 0 -260.101
0 0 -7.95544
0 0 -260.345
0 0 -7.94196
0 0 -260.63
0 0 -8.26258
0 0 -260.62
0 0 -8.64494
0 0 -261.035
0 0 -8.6391
0 0 -9.95439
0 0 -262.371
0 0 -9.95313
0 0 -263.298
0 0 -10.9582
0 0 -263.297
0 0 -11.9948
0 0 -264.336
0 0 -11.9931
0 0 -265.296
0 0 -12.9187
0 0 -265.294
0 0 -13.6573
0 0 -265.938
0 0 -13.6541
0 0 -266.289
0 0 -13.886
0 0 -266.285
0 0 -13.7202
0 0 -265.958
0 0 -13.7154
0 0 -265.127
0 0 -12.7243
0 0 -265.122
0 0 -11.1144
0 0 -263.397
0 0 -11.1082
0 0 -3.76165
0 0 -255.579
0 0 -3.757
0 0 -248.801
0 0 3.88282
0 0 -248.799
0 0 13.2418
0 0 -238.71
0 0 13.241
0 0 -227.094
0 0 25.4802
0 0 -227.098
0 0 39.0498
0 0 -213.002
0 0 39.0429
0 0 -197.782
0 0 54.6947
0 0 -197.792
0 0 71.2573
0 0 -180.892
0 0 71.2447
0 0 -163.301
0 0 89.0778
0 0 -163.315
0 0 107.377
0 0 -144.87
0 0 107.361
0 0 3.31845
0 0 -248.555
0 0 3.30666
0 0 -242.159
0 0 10.5224
0 0 -242.174
0 0 19.3654
0 0 -232.638
0 0 19.3472
0 0 -221.655
0 0 30.9207
0 0 -221.677
0 0 43.756
0 0 -208.342
0 0 43.7306
0 0 -193.941
0 0 58.5417
0 0 -193.969
0 0 74.2172
0 0 -177.971
0 0 74.1855
0 0 -161.32
0 0 91.0701
0 0 -161.35
0 0 108.393
0 0 -143.88
0 0 108.362
0 0 0
0 0 0
0 0 0
0 0 0
-3.49198 5.54349 -5.20735
3.42009 -5.64494 4.41407
3.41984 -5.67361 4.41869
-3.49338 5.56847 -5.20746
0 0 0
0 0 0
3.50952 -5.66894 4.36532
3.5086 -5.64388 4.36077
0 0 0
0 0 0
0 0 0
0 0 0
0 0 0
0 0 0
3.4658 -5.65724 4.11033
-3.46101 5.54586 -5.20426
3.44949 -5.64555 4.40576
-3.43719 5.55718 -5.30004
3.44962 -5.67288 4.41035
-3.46205 5.56861 -5.20429
43.6354 -32.9229 0.911958
-3.48288 3.09368 1.86984
-37.5754 29.3337 2.81781
-1.11716 -0.554329 4.25886
-5.48267 4.18771 3.87443
-30.4964 24.494 4.00374
0.154879 -0.742159 4.12029
-8.1265 6.34293 4.13377
-10.0782 7.9531 4.06117
0.693691 -0.993976 4.09447
14.1334 -12.8179 4.05977
3.41094 -3.39233 4.16697
-13.8369 11.885 4.05073
-15.5583 13.4799 4.17595
-5.6386 4.35339 4.03386
3.96176 -4.54674 4.18374
-4.87571 3.77552 4.0178
2.55631 -3.33965 4.19124
3.57688 -4.35298 4.00332
0.524636 -1.31585 4.19866
-0.940712 0.153009 3.9909
-0.534205 -0.261597 4.20634
-0.781031 -0.00569536 3.9809
-0.205763 -0.620434 4.21476
0.29003 -1.15248 3.97358
-1.42676 0.728978 4.22448
-1.29615 0.590781 3.9692
0.687968 -1.689 4.23609
-0.645752 -0.123526 3.96803
0.381091 -1.35858 4.2502
11.3142 -14.5965 3.97036
-0.375033 -0.152955 4.26744
-0.467057 -0.0202004 3.97654
-0.527675 0.0387754 4.28841
-0.660865 0.232752 3.98702
-1.02657 0.704851 4.31379
0.0367659 -0.742747 4.0027
2.83296 -4.71572 4.34585
2.68712 -4.49947 4.03194
-2.72828 4.40455 -5.21387
-2.85905 4.61642 -5.13434
-0.0669463 0.65412 -5.17004
1.0027 -0.798334 -5.09134
0.630853 -0.315187 -5.12969
0.503773 -0.126526 -5.04653
0.436567 -0.056063 -5.0858
0.351174 0.0708462 -4.99881
-11.3452 14.5264 -5.0384
-0.404676 1.28202 -4.94862
0.614012 0.0597758 -4.98785
-0.710961 1.6179 -4.89645
1.26356 -0.648101 -4.93449
1.40479 -0.794705 -4.84278
-0.323771 1.10175 -4.87865
0.185404 0.56001 -4.78809
0.745736 -0.0382625 -4.82064
0.516178 0.206429 -4.73284
0.903334 -0.19001 -4.76074
-0.53948 1.26593 -4.67747
-3.61695 4.3231 -4.69922
-2.56705 3.29505 -4.62241
4.83234 -3.79816 -4.63638
-3.9675 4.50762 -4.56804
5.59149 -4.36878 -4.57252
15.5583 -13.5132 -4.51467
13.7862 -11.8933 -4.50794
-3.40294 3.36543 -4.46163
-14.1698 12.8165 -4.43589
10.0392 -7.94933 -4.35897
8.12514 -6.35265 -4.33945
-0.360587 0.749853 -4.34174
30.4818 -24.4951 -4.161
5.32014 -4.17883 -4.03045
-0.0772839 0.5606 -4.33505
37.4445 -29.3243 -2.91508
3.48833 -3.0881 -1.91782
-43.64 32.9389 -0.950971
2.68799 -4.50176 4.03209
2.83324 -4.70988 4.34099
0.0376135 -0.751838 4.00305
-1.02625 0.708111 4.30864
-0.660056 0.222095 3.98758
-0.527283 0.0406548 4.28293
-0.466304 -0.0319141 3.97736
-0.374547 -0.152297 4.26156
11.3148 -14.6091 3.97147
0.381688 -1.35903 4.24387
-0.645167 -0.136769 3.96949
0.688692 -1.69047 4.22921
-1.29567 0.577067 3.97109
-1.4259 0.726517 4.21697
0.290398 -1.1664 3.97598
-0.204766 -0.623945 4.20652
-0.78077 -0.0194701 3.9839
-0.533083 -0.266324 4.19725
-0.94054 0.139839 3.99461
0.525852 -1.32208 4.18862
3.577 -4.36498 4.0078
2.55756 -3.34778 4.18018
-4.87559 3.76535 4.02311
3.96295 -4.55724 4.17159
-5.63841 4.34574 4.04
-15.5573 13.4666 4.16273
-13.8366 11.8803 4.05758
3.41145 -3.41036 4.15278
14.1336 -12.8322 4.06721
0.693736 -1.12554 4.0794
-10.0778 7.94196 4.06943
-8.12711 6.3349 4.11852
0.15552 -0.616475 4.12953
-30.4976 24.4986 3.98897
-5.48089 4.28221 3.88521
-1.12073 0.442042 4.24562
-37.5713 29.4154 2.82627
-3.48701 3.07803 1.8635
43.6381 -32.9493 0.914657
-43.64 32.9327 -0.953504
3.48834 -3.08406 -1.91272
37.4446 -29.426 -2.92447
-0.0775871 -0.4527 -4.32212
5.3196 -4.29542 -4.04429
30.4827 -24.5095 -4.15097
-0.3612 0.595488 -4.35636
8.12634 -6.34955 -4.33066
10.0385 -7.97155 -4.37415
-0.535934 1.10542 -4.34124
-14.1701 12.7937 -4.45062
-3.40151 3.38344 -4.4541
13.7861 -11.926 -4.52168
15.5596 -13.5007 -4.50801
5.59141 -4.39754 -4.58522
-3.96614 4.51591 -4.56229
4.83226 -3.82265 -4.64797
-2.56569 3.29941 -4.61755
-3.61705 4.30263 -4.70973
-0.538117 1.26695 -4.67345
0.903217 -0.206909 -4.77023
0.517547 0.20482 -4.72957
0.745593 -0.0520881 -4.82923
0.186783 0.556474 -4.78548
-0.323941 1.09055 -4.88645
1.40618 -0.799527 -4.84073
1.26336 -0.657039 -4.94161
-0.709566 1.61235 -4.89485
0.613789 0.0528474 -4.99438
-0.403275 1.27619 -4.9474
-11.3455 14.5214 -5.04445
0.352578 0.06512 -4.99791
0.436298 -0.0593679 -5.09143
0.505179 -0.131818 -5.0459
0.630566 -0.316755 -5.13496
1.0041 -0.802948 -5.09092
-0.0672448 0.654034 -5.17501
-2.85765 4.61164 -5.13412
-2.72858 4.40109 -5.21856
0 0 0
0 0 0
0 0 0
0 0 0
0 0 0
-3.52217 5.56726 -5.19463
3.48196 -5.66857 4.35999
-3.54378 5.55652 -5.24411
3.48146 -5.64452 4.35544
-3.52037 5.54516 -5.19465
43.6423 -32.9494 0.914991
-3.49102 3.0787 1.86396
-37.3171 29.4146 2.82807
1.27229 0.443743 4.24599
-5.15944 4.28119 3.89016
-30.4731 24.5004 3.98704
0.563185 -0.616584 4.13782
-8.13429 6.33709 4.11473
-10.0064 7.94249 4.08014
0.366489 -1.12268 4.07335
14.1963 -12.8311 4.07984
3.37602 -3.40762 4.14425
-13.7484 11.8819 4.07233
-15.5806 13.4691 4.15152
-5.55983 4.34751 4.05722
3.94775 -4.55492 4.15759
-4.8071 3.76715 4.04299
2.54932 -3.34563 4.16326
3.63616 -4.36322 4.03045
0.523014 -1.32005 4.16872
-0.889583 0.141529 4.0201
-0.532221 -0.264394 4.1743
-0.736836 -0.0178591 4.01229
-0.201834 -0.622108 4.18048
0.328367 -1.16487 4.00732
-1.42231 0.728259 4.18778
-1.26282 0.578527 4.00545
0.69178 -1.68883 4.19681
-0.616795 -0.135375 4.00694
0.383394 -1.35749 4.20818
11.3392 -14.6077 4.01208
-0.374879 -0.150866 4.2225
-0.445786 -0.0306279 4.02123
-0.530139 0.0419768 4.24041
-0.643079 0.223336 4.0348
-1.0318 0.709328 4.26259
0.0523838 -0.750637 4.0537
2.82948 -4.70875 4.29134
2.72218 -4.5006 4.08623
2.7202 -4.50191 4.08612
2.83039 -4.71101 4.29617
0.0504069 -0.74509 4.05337
-1.03088 0.709583 4.26773
-0.645084 0.230524 4.03427
-0.529193 0.0435341 4.24588
-0.447845 -0.0223011 4.02045
-0.373882 -0.14817 4.22836
11.337 -14.5985 4.01102
0.384459 -1.35377 4.21449
-0.619011 -0.125357 4.00552
0.692923 -1.68416 4.20367
-1.26513 0.589086 4.00361
-1.42108 0.733855 4.19528
0.325957 -1.15404 4.00497
-0.200516 -0.615516 4.18871
-0.739341 -0.00712961 4.00934
-0.530826 -0.256631 4.18339
-0.892167 0.151698 4.01644
0.524462 -1.31082 4.17877
3.63352 -4.35417 4.026
2.55077 -3.33456 4.17436
-4.80975 3.77443 4.03767
3.94913 -4.54158 4.1698
-5.56243 4.3524 4.05101
-15.5794 13.4852 4.16484
-13.7509 11.8841 4.06525
3.37676 -3.38708 4.15853
14.1941 -12.8191 4.07192
0.366791 -0.989045 4.08832
-10.0081 7.95132 4.07129
-8.13426 6.3474 4.12952
0.562234 -0.744781 4.12791
-30.4735 24.4979 4.00131
-5.15862 4.18422 3.87966
1.27003 -0.550735 4.25707
-37.3143 29.3311 2.82064
-3.49439 3.09518 1.86961
43.6445 -32.9238 0.912715
0 0 0
0 0 0
-3.47254 5.55788 -5.29237
3.42924 -5.65926 4.10738
43.6421 -32.9206 0.915413
-43.6518 32.9431 -0.953752
-3.48918 3.09266 1.8743
3.46696 -3.09509 -1.90851
-37.4845 29.3371 2.81198
37.5065 -29.3169 -2.93563
-0.32623 -0.557063 4.23817
0.698468 0.553101 -4.31876
-5.37142 4.1903 3.86142
5.40244 -4.17422 -4.06619
-30.491 24.4924 4.01126
30.4694 -24.498 -4.12092
0.291684 -0.740924 4.10345
-0.248268 0.750372 -4.38513
-8.1295 6.34227 4.14348
8.10259 -6.35202 -4.29499
-10.055 7.95338 4.0472
10.0405 -7.95208 -4.40177
0.586089 -0.993499 4.10791
-0.667194 0.97828 -4.30478
14.1521 -12.8182 4.04676
-14.1706 12.8113 -4.47461
3.40114 -3.391 4.17543
-3.4354 3.36993 -4.42468
-13.8098 11.8848 4.03931
13.7942 -11.8992 -4.53984
-15.5637 13.4816 4.1819
15.5304 -13.5087 -4.48503
-5.61485 4.35318 4.02471
5.59661 -4.37467 -4.5971
3.95913 -4.54517 4.18739
-3.99188 4.51196 -4.54551
-4.85526 3.77548 4.0107
4.8347 -3.80369 -4.6541
2.5559 -3.3383 4.19301
-2.58805 3.29897 -4.60628
3.5944 -4.35282 3.99788
-3.61688 4.3181 -4.711
0.525815 -1.31474 4.19905
-0.55744 1.26934 -4.66674
-0.925671 0.153336 3.98669
0.901708 -0.194428 -4.76768
-0.532055 -0.260706 4.20581
0.500832 0.209316 -4.72641
-0.768058 -0.00524551 3.97758
0.743008 -0.0421072 -4.82389
-0.203191 -0.619704 4.21366
0.17226 0.562409 -4.78488
0.301276 -1.15197 3.97095
-0.327056 1.09843 -4.87928
-1.42421 0.729616 4.223
1.39349 -0.79274 -4.8418
-1.28638 0.591278 3.96721
1.26017 -0.650955 -4.93344
0.69013 -1.68839 4.23428
-0.720687 1.6195 -4.89685
-0.637275 -0.123099 3.96675
0.610884 0.0573246 -4.98594
0.382615 -1.35794 4.24798
-0.413023 1.2833 -4.94968
11.3214 -14.5962 3.96998
-11.3478 14.5243 -5.03633
-0.37433 -0.15225 4.26462
0.344082 0.0718653 -4.99992
-0.460909 -0.0200296 3.97732
0.434684 -0.0578661 -5.08416
-0.527933 0.0395594 4.28475
0.49787 -0.125732 -5.04716
-0.655785 0.232787 3.98924
0.629844 -0.316722 -5.12899
-1.02783 0.705694 4.30907
0.998019 -0.797742 -5.09101
0.0412236 -0.742803 4.00658
-0.0666046 0.652833 -5.17075
2.83216 -4.71488 4.33985
-2.86092 4.61681 -5.13263
2.69819 -4.4995 4.03727
-2.71939 4.4035 -5.21652
43.6425 -32.9507 0.91785
-43.653 32.9284 -0.956475
-3.49009 3.07751 1.86812
3.46898 -3.07613 -1.90296
-37.4832 29.4136 2.82083
37.5041 -29.4348 -2.94573
-0.326973 0.443815 4.22425
0.700682 -0.44333 -4.30761
-5.37052 4.2808 3.87247
5.40102 -4.30262 -4.08072
-30.4917 24.4997 3.99648
30.4706 -24.5047 -4.11082
0.29274 -0.616875 4.11267
-0.249007 0.592035 -4.40016
-8.13008 6.33526 4.12815
8.10334 -6.3479 -4.28635
-10.0541 7.94225 4.05545
10.04 -7.97255 -4.41717
0.585342 -1.12613 4.09284
-0.66661 1.10448 -4.29696
14.1533 -12.831 4.05441
-14.1707 12.7945 -4.48926
3.40107 -3.4111 4.16124
-3.43473 3.38123 -4.41751
-13.8088 11.8821 4.04633
13.7946 -11.9247 -4.55359
-15.5635 13.466 4.16869
15.531 -13.5033 -4.47849
-5.61388 4.3476 4.03089
5.59728 -4.39636 -4.60979
3.95946 -4.5577 4.17526
-3.99132 4.51352 -4.53979
-4.85431 3.76705 4.016
4.83548 -3.82179 -4.66568
2.55625 -3.34804 4.18197
-2.58751 3.29746 -4.60141
3.59536 -4.36351 4.00232
-3.61609 4.30302 -4.72151
0.526142 -1.32214 4.18906
-0.556885 1.26556 -4.66269
-0.924696 0.141079 3.99035
0.902445 -0.20704 -4.7772
-0.531773 -0.266248 4.19677
0.501436 0.204002 -4.7231
-0.767051 -0.0183928 3.98053
0.743666 -0.0527294 -4.83251
-0.202964 -0.6238 4.20547
0.172931 0.556203 -4.78222
0.302323 -1.16541 3.9733
-0.326492 1.08944 -4.88711
-1.42405 0.726655 4.21555
1.39424 -0.799308 -4.8397
-1.28529 0.578041 3.96904
1.26064 -0.658545 -4.94058
0.690235 -1.69041 4.22745
-0.71987 1.61299 -4.89522
-0.636151 -0.135746 3.96816
0.611256 0.0510029 -4.9925
0.382663 -1.3591 4.24169
-0.412141 1.2772 -4.94843
11.3226 -14.6079 3.97104
-11.3475 14.5192 -5.04239
-0.374334 -0.152534 4.25878
0.34502 0.0664445 -4.99899
-0.459727 -0.0306707 3.9781
0.434897 -0.0617369 -5.0898
-0.52798 0.0402414 4.2793
0.49885 -0.130217 -5.04649
-0.654585 0.223457 3.98978
0.629998 -0.319337 -5.13427
-1.02791 0.707546 4.30394
0.99903 -0.801094 -5.09057
0.0424358 -0.750398 4.00691
-0.0664965 0.651251 -5.17573
2.83206 -4.71053 4.33501
-2.85989 4.61374 -5.13238
2.69942 -4.50036 4.03742
-2.7193 4.39811 -5.22124
43.64 -32.9357 0.928983
-3.48844 3.08534 1.85002
-37.445 29.3746 2.84351
0.0771869 -0.0557089 4.19524
-5.32101 4.23497 3.90568
-30.4844 24.4972 3.95702
0.358375 -0.679836 4.16332
-8.1299 6.34022 4.07058
-10.043 7.94668 4.12684
0.530254 -1.05797 4.01461
14.1639 -12.8261 4.14836
3.39437 -3.39902 4.05941
-13.7938 11.882 4.16303
-15.5682 13.4758 4.04422
-5.60052 4.34899 4.16958
3.95612 -4.54936 4.02922
-4.84279 3.76986 4.17543
2.55426 -3.3411 4.01576
3.6051 -4.35959 4.181
0.525288 -1.31639 4.00423
-0.916564 0.145774 4.18669
-0.53176 -0.261439 3.99494
-0.760335 -0.0132666 4.19295
-0.202366 -0.61973 3.98822
0.307815 -1.16015 4.20025
-1.42312 0.730142 3.98441
-1.28086 0.583185 4.20905
0.691277 -1.68741 3.98386
-0.632646 -0.130911 4.21987
0.38365 -1.35654 3.98695
11.3253 -14.6036 4.2332
-0.37353 -0.150423 3.99409
-0.457838 -0.0268718 4.24959
-0.527448 0.0418616 4.00574
-0.65343 0.226581 4.26961
-1.02768 0.708578 4.02242
0.0430684 -0.748164 4.29425
2.83277 -4.71074 4.0463
2.7031 -4.50152 4.33154
-43.6641 32.9357 -0.953138
3.46104 -3.08551 -1.92055
37.5328 -29.3758 -2.92179
1.09123 0.0549686 -4.35461
5.43927 -4.23837 -4.04285
30.4688 -24.5013 -4.15063
-0.198152 0.671115 -4.35267
8.09817 -6.34978 -4.33448
10.0335 -7.9625 -4.35896
-0.7236 1.04145 -4.35027
-14.1797 12.8026 -4.42402
-3.44228 3.37549 -4.47938
13.7891 -11.9124 -4.48257
15.5261 -13.5061 -4.54581
5.59018 -4.386 -4.53391
-3.99437 4.51253 -4.61155
4.82693 -3.81325 -4.58593
-2.5889 3.29802 -4.67673
-3.62572 4.31005 -4.63875
-0.556864 1.26728 -4.74082
0.892089 -0.201232 -4.69214
0.502626 0.206507 -4.80344
0.732893 -0.0479034 -4.74572
0.175086 0.559173 -4.86434
-0.337423 1.09347 -4.79898
1.39721 -0.796141 -4.9233
1.24975 -0.655201 -4.85138
-0.716196 1.61614 -4.98013
0.600556 0.0537316 -4.90234
-0.407822 1.28016 -5.03464
-11.358 14.5214 -4.95128
0.349946 0.0690762 -5.08656
0.42486 -0.0601943 -4.99763
0.504362 -0.128043 -5.1356
0.620409 -0.318403 -5.04087
1.00513 -0.799477 -5.18144
-0.0753653 0.651688 -5.08086
-2.85246 4.61523 -5.22532
-2.72375 4.40047 -5.12479
0 0 0
0 0 0
-3.51068 5.55595 -5.24117
3.4998 -5.65678 4.09948
43.6377 -32.9511 0.917824
-43.6274 32.929 -0.95598
-3.48709 3.07845 1.86825
3.50823 -3.07723 -1.90284
-37.4062 29.4121 2.82167
37.384 -29.4331 -2.94465
0.480066 0.445692 4.22382
-0.85441 -0.445573 -4.30692
-5.27052 4.27903 3.87553
5.23709 -4.30021 -4.0802
-30.4778 24.5016 3.99384