# vtk DataFile Version 3.0
STAP++ Results
ASCII
DATASET UNSTRUCTURED_GRID
POINTS 4085 float
200 -10 0
200 10 0
150 10 0
150 -10 0
100 10 0
100 -10 0
50 10 0
50 -10 0
0 10 0
0 -10 0
-50 10 0
-50 -10 0
-100 10 0
-100 -10 0
-150 10 0
-150 -10 0
-200 10 0
-200 -10 0
-250 10 0
-250 -10 0
250 -10 0
250 10 0
200 -5 0
200 0 0
200 5 0
195 10 0
190 10 0
185 10 0
180 10 0
175 10 0
170 10 0
165 10 0
160 10 0
155 10 0
150 5 0
150 0 0
150 -5 0
155 -10 0
160 -10 0
165 -10 0
170 -10 0
175 -10 0
180 -10 0
185 -10 0
190 -10 0
195 -10 0
145 10 0
140 10 0
135 10 0
130 10 0
125 10 0
120 10 0
115 10 0
110 10 0
105 10 0
100 5 0
100 0 0
100 -5 0
105 -10 0
110 -10 0
115 -10 0
120 -10 0
125 -10 0
130 -10 0
135 -10 0
140 -10 0
145 -10 0
95 10 0
90 10 0
85 10 0
80 10 0
75 10 0
70 10 0
65 10 0
60 10 0
55 10 0
50 5 0
50 0 0
50 -5 0
55 -10 0
60 -10 0
65 -10 0
70 -10 0
75 -10 0
80 -10 0
85 -10 0
90 -10 0
95 -10 0
45 10 0
40 10 0
35 10 0
30 10 0
25 10 0
20 10 0
15 10 0
10 10 0
5 10 0
0 5 0
0 0 0
0 -5 0
5 -10 0
10 -10 0
15 -10 0
20 -10 0
25 -10 0
30 -10 0
35 -10 0
40 -10 0
45 -10 0
-5 10 0
-10 10 0
-15 10 0
-20 10 0
-25 10 0
-30 10 0
-35 10 0
-40 10 0
-45 10 0
-50 5 0
-50 0 0
-50 -5 0
-45 -10 0
-40 -10 0
-35 -10 0
-30 -10 0
-25 -10 0
-20 -10 0
-15 -10 0
-10 -10 0
-5 -10 0
-55 10 0
-60 10 0
-65 10 0
-70 10 0
-75 10 0
-80 10 0
-85 10 0
-90 10 0
-95 10 0
-100 5 0
-100 0 0
-100 -5 0
-95 -10 0
-90 -10 0
-85 -10 0
-80 -10 0
-75 -10 0
-70 -10 0
-65 -10 0
-60 -10 0
-55 -10 0
-105 10 0
-110 10 0
-115 10 0
-120 10 0
-125 10 0
-130 10 0
-135 10 0
-140 10 0
-145 10 0
-150 5 0
-150 0 0
-150 -5 0
-145 -10 0
-140 -10 0
-135 -10 0
-130 -10 0
-125 -10 0
-120 -10 0
-115 -10 0
-110 -10 0
-105 -10 0
-155 10 0
-160 10 0
-165 10 0
-170 10 0
-175 10 0
-180 10 0
-185 10 0
-190 10 0
-195 10 0
-200 5 0
-200 0 0
-200 -5 0
-195 -10 0
-190 -10 0
-185 -10 0
-180 -10 0
-175 -10 0
-170 -10 0
-165 -10 0
-160 -10 0
-155 -10 0
-205 10 0
-210 10 0
-215 10 0
-220 10 0
-225 10 0
-230 10 0
-235 10 0
-240 10 0
-245 10 0
-250 5 0
-250 0 0
-250 -5 0
-245 -10 0
-240 -10 0
-235 -10 0
-230 -10 0
-225 -10 0
-220 -10 0
-215 -10 0
-210 -10 0
-205 -10 0
205 -10 0
210 -10 0
215 -10 0
220 -10 0
225 -10 0
230 -10 0
235 -10 0
240 -10 0
245 -10 0
250 -5 0
250 0 0
250 5 0
245 10 0
240 10 0
235 10 0
230 10 0
225 10 0
220 10 0
215 10 0
210 10 0
205 10 0
195 -5 0
195 0 0
195 5 0
190 -5 0
190 0 0
190 5 0
185 -5 0
185 0 0
185 5 0
180 -5 0
180 0 0
180 5 0
175 -5 0
175 0 0
175 5 0
170 -5 0
170 0 0
170 5 0
165 -5 0
165 0 0
165 5 0
160 -5 0
160 0 0
160 5 0
155 -5 0
155 0 0
155 5 0
145 -5 0
145 0 0
145 5 0
140 -5 0
140 0 0
140 5 0
135 -5 0
135 0 0
135 5 0
130 -5 0
130 0 0
130 5 0
125 -5 0
125 0 0
125 5 0
120 -5 0
120 0 0
120 5 0
115 -5 0
115 0 0
115 5 0
110 -5 0
110 0 0
110 5 0
105 -5 0
105 0 0
105 5 0
95 -5 0
95 0 0
95 5 0
90 -5 0
90 0 0
90 5 0
85 -5 0
85 0 0
85 5 0
80 -5 0
80 0 0
80 5 0
75 -5 0
75 0 0
75 5 0
70 -5 0
70 0 0
70 5 0
65 -5 0
65 0 0
65 5 0
60 -5 0
60 0 0
60 5 0
55 -5 0
55 0 0
55 5 0
45 -5 0
45 0 0
45 5 0
40 -5 0
40 0 0
40 5 0
35 -5 0
35 0 0
35 5 0
30 -5 0
30 0 0
30 5 0
25 -5 0
25 0 0
25 5 0
20 -5 0
20 0 0
20 5 0
15 -5 0
15 0 0
15 5 0
10 -5 0
10 0 0
10 5 0
5 -5 0
5 0 0
5 5 0
-5 -5 0
-5 0 0
-5 5 0
-10 -5 0
-10 0 0
-10 5 0
-15 -5 0
-15 0 0
-15 5 0
-20 -5 0
-20 0 0
-20 5 0
-25 -5 0
-25 0 0
-25 5 0
-30 -5 0
-30 0 0
-30 5 0
-35 -5 0
-35 0 0
-35 5 0
-40 -5 0
-40 0 0
-40 5 0
-45 -5 0
-45 0 0
-45 5 0
-55 -5 0
-55 0 0
-55 5 0
-60 -5 0
-60 0 0
-60 5 0
-65 -5 0
-65 0 0
-65 5 0
-70 -5 0
-70 0 0
-70 5 0
-75 -5 0
-75 0 0
-75 5 0
-80 -5 0
-80 0 0
-80 5 0
-85 -5 0
-85 0 0
-85 5 0
-90 -5 0
-90 0 0
-90 5 0
-95 -5 0
-95 0 0
-95 5 0
-105 -5 0
-105 0 0
-105 5 0
-110 -5 0
-110 0 0
-110 5 0
-115 -5 0
-115 0 0
-115 5 0
-120 -5 0
-120 0 0
-120 5 0
-125 -5 0
-125 0 0
-125 5 0
-130 -5 0
-130 0 0
-130 5 0
-135 -5 0
-135 0 0
-135 5 0
-140 -5 0
-140 0 0
-140 5 0
-145 -5 0
-145 0 0
-145 5 0
-155 -5 0
-155 0 0
-155 5 0
-160 -5 0
-160 0 0
-160 5 0
-165 -5 0
-165 0 0
-165 5 0
-170 -5 0
-170 0 0
-170 5 0
-175 -5 0
-175 0 0
-175 5 0
-180 -5 0
-180 0 0
-180 5 0
-185 -5 0
-185 0 0
-185 5 0
-190 -5 0
-190 0 0
-190 5 0
-195 -5 0
-195 0 0
-195 5 0
-205 -5 0
-205 0 0
-205 5 0
-210 -5 0
-210 0 0
-210 5 0
-215 -5 0
-215 0 0
-215 5 0
-220 -5 0
-220 0 0
-220 5 0
-225 -5 0
-225 0 0
-225 5 0
-230 -5 0
-230 0 0
-230 5 0
-235 -5 0
-235 0 0
-235 5 0
-240 -5 0
-240 0 0
-240 5 0
-245 -5 0
-245 0 0
-245 5 0
205 5 0
205 0 0
205 -5 0
210 5 0
210 0 0
210 -5 0
215 5 0
215 0 0
215 -5 0
220 5 0
220 0 0
220 -5 0
225 5 0
225 0 0
225 -5 0
230 5 0
230 0 0
230 -5 0
235 5 0
235 0 0
235 -5 0
240 5 0
240 0 0
240 -5 0
245 5 0
245 0 0
245 -5 0
0 -10 -50
0 -20 -50
-20 -20 -50
-20 -10 -50
0 -20 150
-10 -20 150
-10 -10 150
0 -10 150
20 -10 -50
20 -20 -50
10 -10 150
10 -20 150
0 -15 -50
-6.66667 -20 -50
-13.3333 -20 -50
-20 -15 -50
-13.3333 -10 -50
-6.66667 -10 -50
0 -15 150
-6.66667 -20 150
-3.33333 -20 150
-10 -15 150
-3.33333 -10 150
-6.66667 -10 150
-19.75 -10 -45
-19.5 -10 -40
-19.25 -10 -35
-19 -10 -30
-18.75 -10 -25
-18.5 -10 -20
-18.25 -10 -15
-18 -10 -10
-17.75 -10 -5
-17.5 -10 0
-17.25 -10 5
-17 -10 10
-16.75 -10 15
-16.5 -10 20
-16.25 -10 25
-16 -10 30
-15.75 -10 35
-15.5 -10 40
-15.25 -10 45
-15 -10 50
-14.75 -10 55
-14.5 -10 60
-14.25 -10 65
-14 -10 70
-13.75 -10 75
-13.5 -10 80
-13.25 -10 85
-13 -10 90
-12.75 -10 95
-12.5 -10 100
-12.25 -10 105
-12 -10 110
-11.75 -10 115
-11.5 -10 120
-11.25 -10 125
-11 -10 130
-10.75 -10 135
-10.5 -10 140
-10.25 -10 145
0 -10 145
0 -10 140
0 -10 135
0 -10 130
0 -10 125
0 -10 120
0 -10 115
0 -10 110
0 -10 105
0 -10 100
0 -10 95
0 -10 90
0 -10 85
0 -10 80
0 -10 75
0 -10 70
0 -10 65
0 -10 60
0 -10 55
0 -10 50
0 -10 45
0 -10 40
0 -10 35
0 -10 30
0 -10 25
0 -10 20
0 -10 15
0 -10 10
0 -10 5
0 -10 -5
0 -10 -10
0 -10 -15
0 -10 -20
0 -10 -25
0 -10 -30
0 -10 -35
0 -10 -40
0 -10 -45
-10.25 -20 145
-10.5 -20 140
-10.75 -20 135
-11 -20 130
-11.25 -20 125
-11.5 -20 120
-11.75 -20 115
-12 -20 110
-12.25 -20 105
-12.5 -20 100
-12.75 -20 95
-13 -20 90
-13.25 -20 85
-13.5 -20 80
-13.75 -20 75
-14 -20 70
-14.25 -20 65
-14.5 -20 60
-14.75 -20 55
-15 -20 50
-15.25 -20 45
-15.5 -20 40
-15.75 -20 35
-16 -20 30
-16.25 -20 25
-16.5 -20 20
-16.75 -20 15
-17 -20 10
-17.25 -20 5
-17.5 -20 0
-17.75 -20 -5
-18 -20 -10
-18.25 -20 -15
-18.5 -20 -20
-18.75 -20 -25
-19 -20 -30
-19.25 -20 -35
-19.5 -20 -40
-19.75 -20 -45
0 -20 -45
0 -20 -40
0 -20 -35
0 -20 -30
0 -20 -25
0 -20 -20
0 -20 -15
0 -20 -10
0 -20 -5
0 -20 0
0 -20 5
0 -20 10
0 -20 15
0 -20 20
0 -20 25
0 -20 30
0 -20 35
0 -20 40
0 -20 45
0 -20 50
0 -20 55
0 -20 60
0 -20 65
0 -20 70
0 -20 75
0 -20 80
0 -20 85
0 -20 90
0 -20 95
0 -20 100
0 -20 105
0 -20 110
0 -20 115
0 -20 120
0 -20 125
0 -20 130
0 -20 135
0 -20 140
0 -20 145
6.66667 -10 -50
13.3333 -10 -50
20 -15 -50
13.3333 -20 -50
6.66667 -20 -50
6.66667 -10 150
3.33333 -10 150
10 -15 150
3.33333 -20 150
6.66667 -20 150
19.75 -20 -45
19.5 -20 -40
19.25 -20 -35
19 -20 -30
18.75 -20 -25
18.5 -20 -20
18.25 -20 -15
18 -20 -10
17.75 -20 -5
17.5 -20 0
17.25 -20 5
17 -20 10
16.75 -20 15
16.5 -20 20
16.25 -20 25
16 -20 30
15.75 -20 35
15.5 -20 40
15.25 -20 45
15 -20 50
14.75 -20 55
14.5 -20 60
14.25 -20 65
14 -20 70
13.75 -20 75
13.5 -20 80
13.25 -20 85
13 -20 90
12.75 -20 95
12.5 -20 100
12.25 -20 105
12 -20 110
11.75 -20 115
11.5 -20 120
11.25 -20 125
11 -20 130
10.75 -20 135
10.5 -20 140
10.25 -20 145
10.25 -10 145
10.5 -10 140
10.75 -10 135
11 -10 130
11.25 -10 125
11.5 -10 120
11.75 -10 115
12 -10 110
12.25 -10 105
12.5 -10 100
12.75 -10 95
13 -10 90
13.25 -10 85
13.5 -10 80
13.75 -10 75
14 -10 70
14.25 -10 65
14.5 -10 60
14.75 -10 55
15 -10 50
15.25 -10 45
15.5 -10 40
15.75 -10 35
16 -10 30
16.25 -10 25
16.5 -10 20
16.75 -10 15
17 -10 10
17.25 -10 5
17.5 -10 0
17.75 -10 -5
18 -10 -10
18.25 -10 -15
18.5 -10 -20
18.75 -10 -25
19 -10 -30
19.25 -10 -35
19.5 -10 -40
19.75 -10 -45
-6.66667 -15 -50
-13.3333 -15 -50
-3.33333 -15 150
-6.66667 -15 150
-6.58333 -10 -45
-13.1667 -10 -45
-6.5 -10 -40
-13 -10 -40
-6.41667 -10 -35
-12.8333 -10 -35
-6.33333 -10 -30
-12.6667 -10 -30
-6.25 -10 -25
-12.5 -10 -25
-6.16667 -10 -20
-12.3333 -10 -20
-6.08333 -10 -15
-12.1667 -10 -15
-6 -10 -10
-12 -10 -10
-5.91667 -10 -5
-11.8333 -10 -5
-5.83333 -10 0
-11.6667 -10 0
-5.75 -10 5
-11.5 -10 5
-5.66667 -10 10
-11.3333 -10 10
-5.58333 -10 15
-11.1667 -10 15
-5.5 -10 20
-11 -10 20
-5.41667 -10 25
-10.8333 -10 25
-5.33333 -10 30
-10.6667 -10 30
-5.25 -10 35
-10.5 -10 35
-5.16667 -10 40
-10.3333 -10 40
-5.08333 -10 45
-10.1667 -10 45
-5 -10 50
-10 -10 50
-4.91667 -10 55
-9.83333 -10 55
-4.83333 -10 60
-9.66667 -10 60
-4.75 -10 65
-9.5 -10 65
-4.66667 -10 70
-9.33333 -10 70
-4.58333 -10 75
-9.16667 -10 75
-4.5 -10 80
-9 -10 80
-4.41667 -10 85
-8.83333 -10 85
-4.33333 -10 90
-8.66667 -10 90
-4.25 -10 95
-8.5 -10 95
-4.16667 -10 100
-8.33333 -10 100
-4.08333 -10 105
-8.16667 -10 105
-4 -10 110
-8 -10 110
-3.91667 -10 115
-7.83333 -10 115
-3.83333 -10 120
-7.66667 -10 120
-3.75 -10 125
-7.5 -10 125
-3.66667 -10 130
-7.33333 -10 130
-3.58333 -10 135
-7.16667 -10 135
-3.5 -10 140
-7 -10 140
-3.41667 -10 145
-6.83333 -10 145
-6.58333 -20 -45
-13.1667 -20 -45
-6.5 -20 -40
-13 -20 -40
-6.41667 -20 -35
-12.8333 -20 -35
-6.33333 -20 -30
-12.6667 -20 -30
-6.25 -20 -25
-12.5 -20 -25
-6.16667 -20 -20
-12.3333 -20 -20
-6.08333 -20 -15
-12.1667 -20 -15
-6 -20 -10
-12 -20 -10
-5.91667 -20 -5
-11.8333 -20 -5
-5.83333 -20 0
-11.6667 -20 0
-5.75 -20 5
-11.5 -20 5
-5.66667 -20 10
-11.3333 -20 10
-5.58333 -20 15
-11.1667 -20 15
-5.5 -20 20
-11 -20 20
-5.41667 -20 25
-10.8333 -20 25
-5.33333 -20 30
-10.6667 -20 30
-5.25 -20 35
-10.5 -20 35
-5.16667 -20 40
-10.3333 -20 40
-5.08333 -20 45
-10.1667 -20 45
-5 -20 50
-10 -20 50
-4.91667 -20 55
-9.83333 -20 55
-4.83333 -20 60
-9.66667 -20 60
-4.75 -20 65
-9.5 -20 65
-4.66667 -20 70
-9.33333 -20 70
-4.58333 -20 75
-9.16667 -20 75
-4.5 -20 80
-9 -20 80
-4.41667 -20 85
-8.83333 -20 85
-4.33333 -20 90
-8.66667 -20 90
-4.25 -20 95
-8.5 -20 95
-4.16667 -20 100
-8.33333 -20 100
-4.08333 -20 105
-8.16667 -20 105
-4 -20 110
-8 -20 110
-3.91667 -20 115
[...]
POINT_DATA 4085
VECTORS Displacement float
-0.64675 -0.7161 -1.11308
-0.676159 0.357346 -1.19751
-1.51583 0.407486 -2.25704
-1.58424 -0.814829 -2.08692
0.57157 0.528897 -1.21185
0.531559 -0.857142 -1.07061
0.660296 0.529519 -0.266258
0.768646 -0.797215 -0.132915
0.058975 0.124973 -0.122703
-0.0589024 -0.125181 -0.122659
-0.770044 0.804947 -0.132356
-0.652908 -0.544144 -0.268953
-0.534243 0.859349 -1.07394
-0.566764 -0.583126 -1.20959
1.59041 0.810186 -2.09343
1.51476 -0.512327 -2.25473
0.646759 0.695074 -1.11823
0.682006 -0.622267 -1.19346
0.0100309 -0.0228817 -0.0514493
0.00354531 -0.0225084 -0.0608305
-0.00678086 0.027922 -0.0522541
-0.0120343 0.0309532 -0.0661187
0 0 -1.39151
0 0 -1.2977
0 0 -1.43039
0 0 -1.44731
0 0 -1.53209
0 0 -2.00683
0 0 -2.10395
0 0 -2.53764
0 0 -2.48834
0 0 -2.77414
0 0 -2.52521
0 0 -2.66426
0 0 -2.53505
0 0 -2.26237
0 0 -2.44992
0 0 -2.5025
0 0 -2.37263
0 0 -2.63158
0 0 -2.35585
0 0 -2.41528
0 0 -1.99172
0 0 -1.90443
0 0 -1.43922
0 0 -1.36156
0 0 -2.42663
0 0 -2.16905
0 0 -2.43465
0 0 -2.11855
0 0 -2.31299
0 0 -1.87859
0 0 -1.99122
0 0 -1.48009
0 0 -1.60284
0 0 -1.58678
0 0 -1.25683
0 0 -1.51517
0 0 -1.46022
0 0 -1.33364
0 0 -1.84072
0 0 -1.7237
0 0 -2.15375
0 0 -1.95492
0 0 -2.26686
0 0 -1.99758
0 0 -2.25313
0 0 -1.59048
0 0 -1.31179
0 0 -1.66411
0 0 -1.28527
0 0 -1.52253
0 0 -1.00496
0 0 -1.1425
0 0 -0.55431
0 0 -0.709805
0 0 -0.700322
0 0 -0.333634
0 0 -0.633132
0 0 -0.562449
0 0 -0.403919
0 0 -0.991972
0 0 -0.855293
0 0 -1.37411
0 0 -1.13814
0 0 -1.51837
0 0 -1.16737
0 0 -1.4476
0 0 -0.707488
0 0 -0.447517
0 0 -0.917941
0 0 -0.602681
0 0 -0.976029
0 0 -0.538352
0 0 -0.801848
0 0 -0.285332
0 0 -0.539905
0 0 -0.510672
0 0 -0.159957
0 0 -0.510647
0 0 -0.538731
0 0 -0.272661
0 0 -0.775902
0 0 -0.498078
0 0 -0.921245
0 0 -0.533173
0 0 -0.833741
0 0 -0.348123
0 0 -0.593165
0 0 -0.538559
0 0 -0.272561
0 0 -0.775146
0 0 -0.49774
0 0 -0.91992
0 0 -0.532656
0 0 -0.831928
0 0 -0.347514
0 0 -0.590977
0 0 -0.631696
0 0 -0.334841
0 0 -0.700612
0 0 -0.708107
0 0 -0.449416
0 0 -0.91825
0 0 -0.603924
0 0 -0.97609
0 0 -0.539037
0 0 -0.801754
0 0 -0.285552
0 0 -0.539768
0 0 -0.560268
0 0 -0.404281
0 0 -0.990646
0 0 -0.856847
0 0 -1.37352
0 0 -1.14065
0 0 -1.51826
0 0 -1.17056
0 0 -1.44764
0 0 -1.51417
0 0 -1.25825
0 0 -1.58344
0 0 -1.58543
0 0 -1.311
0 0 -1.66104
0 0 -1.28595
0 0 -1.52121
0 0 -1.00692
0 0 -1.14266
0 0 -0.557189
0 0 -0.710908
0 0 -1.46005
0 0 -1.33754
0 0 -1.84094
0 0 -1.72834
0 0 -2.15428
0 0 -1.96015
0 0 -2.26758
0 0 -2.00326
0 0 -2.25395
0 0 -2.44988
0 0 -2.26586
0 0 -2.53135
0 0 -2.42006
0 0 -2.16808
0 0 -2.42899
0 0 -2.1177
0 0 -2.30764
0 0 -1.87759
0 0 -1.98599
0 0 -1.47875
0 0 -1.59739
0 0 -2.50472
0 0 -2.38104
0 0 -2.63482
0 0 -2.36523
0 0 -2.41872
0 0 -2.00103
0 0 -1.90687
0 0 -1.44676
0 0 -1.36143
0 0 -1.39105
0 0 -1.30441
0 0 -1.43042
0 0 -1.43987
0 0 -1.53403
0 0 -2.00292
0 0 -2.10666
0 0 -2.5338
0 0 -2.49001
0 0 -2.76907
0 0 -2.52496
0 0 -2.65724
0 0 -1.3473
0 0 -1.36857
0 0 -1.6223
0 0 -1.60526
0 0 -1.68619
0 0 -1.49754
0 0 -1.32699
0 0 -0.943402
0 0 -0.549882
0.00949082 -0.0218485 -0.055773
0.00820749 -0.021394 -0.0561858
-0.00266187 -0.0237662 -0.0601296
0 0 -0.547603
0 0 -0.940206
0 0 -1.334
0 0 -1.51503
0 0 -1.71562
0 0 -1.6464
0 0 -1.67513
0 0 -1.43254
0 0 -1.42027
0 0 -1.34876
0 0 -1.36449
0 0 -1.62605
0 0 -1.60474
0 0 -1.69447
0 0 -1.50325
0 0 -1.34076
0 0 -0.956953
0 0 -0.562395
-0.00819743 0.0286481 -0.0571397
-0.0112651 0.0302122 -0.0589031
-0.0130382 0.0315515 -0.0630476
0 0 -0.55841
0 0 -0.931472
0 0 -1.33146
0 0 -1.50423
0 0 -1.71284
0 0 -1.63719
0 0 -1.675
0 0 -1.4275
0 0 -1.42666
0 0 -1.3161
0 0 -1.53652
0 0 -1.35831
0 0 -1.68383
0 0 -1.55186
0 0 -1.73034
0 0 -1.76165
0 0 -1.97788
0 0 -1.81279
0 0 -2.2066
0 0 -2.04072
0 0 -2.26275
0 0 -2.22303
0 0 -2.45147
0 0 -2.2842
0 0 -2.57629
0 0 -2.38979
0 0 -2.64254
0 0 -2.42204
0 0 -2.6741
0 0 -2.49335
0 0 -2.6317
0 0 -2.4364
0 0 -2.70793
0 0 -2.3126
0 0 -2.60143
0 0 -2.39383
0 0 -2.10875
0 0 -2.44029
0 0 -2.19531
0 0 -2.33575
0 0 -2.125
0 0 -2.42145
0 0 -2.04141
0 0 -2.36089
0 0 -2.12531
0 0 -2.27084
0 0 -2.03094
0 0 -2.35263
0 0 -1.89763
0 0 -2.22406
0 0 -1.97727
0 0 -2.05503
0 0 -1.79959
0 0 -2.13246
0 0 -1.58836
0 0 -1.93438
0 0 -1.66366
0 0 -1.71777
0 0 -1.46048
0 0 -1.79097
0 0 -1.26087
0 0 -1.64541
0 0 -1.33273
0 0 -1.19152
0 0 -1.56993
0 0 -1.26321
0 0 -1.54435
0 0 -1.25315
0 0 -1.61655
0 0 -1.21005
0 0 -1.58258
0 0 -1.28294
0 0 -1.5018
0 0 -1.19377
0 0 -1.57535
0 0 -1.052
0 0 -1.43214
0 0 -1.12623
0 0 -1.23921
0 0 -0.926421
0 0 -1.31402
0 0 -0.688609
0 0 -1.08789
0 0 -0.763859
0 0 -0.843915
0 0 -0.539278
0 0 -0.919075
0 0 -0.325509
0 0 -0.760134
0 0 -0.398581
0 0 -0.30401
0 0 -0.722424
0 0 -0.362323
0 0 -0.76329
0 0 -0.426255
0 0 -0.812884
0 0 -0.481752
0 0 -0.87641
0 0 -0.523932
0 0 -0.912219
0 0 -0.553589
0 0 -0.946941
0 0 -0.544918
0 0 -0.929524
0 0 -0.572339
0 0 -0.872062
0 0 -0.503209
0 0 -0.892179
0 0 -0.401914
0 0 -0.785242
0 0 -0.414959
0 0 -0.663775
0 0 -0.292969
0 0 -0.670057
0 0 -0.185396
0 0 -0.568693
0 0 -0.187205
0 0 -0.18724
0 0 -0.568546
0 0 -0.185418
0 0 -0.669848
0 0 -0.293037
0 0 -0.663405
0 0 -0.415242
0 0 -0.784828
0 0 -0.401866
0 0 -0.891907
0 0 -0.503397
0 0 -0.871279
0 0 -0.572958
0 0 -0.928912
0 0 -0.544842
0 0 -0.946695
0 0 -0.55398
0 0 -0.911097
0 0 -0.524989
0 0 -0.875702
0 0 -0.481742
0 0 -0.812784
0 0 -0.426976
0 0 -0.761946
0 0 -0.363993
0 0 -0.721793
0 0 -0.304174
0 0 -0.400831
0 0 -0.75963
0 0 -0.326124
0 0 -0.919181
0 0 -0.540891
0 0 -0.84277
0 0 -0.765947
0 0 -1.08729
0 0 -0.689947
0 0 -1.31337
0 0 -0.928159
0 0 -1.23836
0 0 -1.12776
0 0 -1.43118
0 0 -1.05389
0 0 -1.57367
0 0 -1.1954
0 0 -1.50105
0 0 -1.28372
0 0 -1.58111
0 0 -1.21229
0 0 -1.61374
0 0 -1.25461
0 0 -1.54355
0 0 -1.26333
0 0 -1.56805
0 0 -1.19394
0 0 -1.33279
0 0 -1.64322
0 0 -1.26342
0 0 -1.78722
0 0 -1.46203
0 0 -1.71666
0 0 -1.66396
0 0 -1.93201
0 0 -1.59138
0 0 -2.12865
0 0 -1.80147
0 0 -2.05406
0 0 -1.97787
0 0 -2.22171
0 0 -1.90116
0 0 -2.34875
0 0 -2.03323
0 0 -2.27002
0 0 -2.12617
0 0 -2.35861
0 0 -2.04543
0 0 -2.41746
0 0 -2.12776
0 0 -2.33512
0 0 -2.19644
0 0 -2.43837
0 0 -2.11335
0 0 -2.39545
0 0 -2.60005
0 0 -2.31842
0 0 -2.70448
0 0 -2.44089
0 0 -2.63262
0 0 -2.49631
0 0 -2.67337
0 0 -2.42911
0 0 -2.64019
0 0 -2.3954
0 0 -2.57786
0 0 -2.28841
0 0 -2.45138
0 0 -2.23081
0 0 -2.26097
0 0 -2.04701
0 0 -2.20822
0 0 -1.81747
0 0 -1.97791
0 0 -1.76932
0 0 -1.72831
0 0 -1.55837
0 0 -1.6848
0 0 -1.3632
0 0 -1.5371
0 0 -1.32248
0 0 -1.32806
0 0 -1.46546
0 0 -1.29152
0 0 -1.55699
0 0 -1.42958
0 0 -1.52505
0 0 -1.54714
0 0 -1.64028
0 0 -1.52071
0 0 -1.70416
0 0 -1.59295
0 0 -1.68356
0 0 -1.59167
0 0 -1.65382
0 0 -1.57705
0 0 -1.53756
0 0 -1.45415
0 0 -1.52859
0 0 -1.24117
0 0 -1.28123
0 0 -1.23811
0 0 -0.950925
0 0 -0.902807
0 0 -0.951606
0 0 -0.502362
0 0 -0.522661
0 0 -0.507462
0 0 -1.3225
0 0 -1.46513
0 0 -1.28591
0 0 -1.55806
0 0 -1.42333
0 0 -1.52619
0 0 -1.54031
0 0 -1.6413
0 0 -1.51637
0 0 -1.70402
0 0 -1.58773
0 0 -1.68713
0 0 -1.5842
0 0 -1.65605
0 0 -1.576
0 0 -1.53735
0 0 -1.45075
0 0 -1.53531
0 0 -1.23413
0 0 -1.28465
0 0 -1.24147
0 0 -0.951798
0 0 -0.900829
0 0 -0.959959
0 0 -0.493874
0 0 -0.523252
0 0 -0.515987
0 0 0
0 0 0
0 0 0
0 0 0
-0.114101 -0.584686 -0.516764
-0.113721 -0.592835 -0.516824
-0.121906 -0.592581 -0.499146
-0.121096 -0.582535 -0.505242
0 0 0
0 0 0
-0.121588 -0.577283 -0.496413
-0.114461 -0.577548 -0.514326
0 0 0
0 0 0
0 0 0
0 0 0
0 0 0
0 0 0
-0.118027 -0.584105 -0.507538
-0.113722 -0.590027 -0.516968
-0.113913 -0.58726 -0.516783
-0.117757 -0.592711 -0.508137
-0.121527 -0.586357 -0.500117
-0.121757 -0.589685 -0.499613
-0.012741 0.00469073 -0.0164395
-0.0205268 -0.00257376 -0.0302539
-0.027664 -0.0129458 -0.0438916
-0.034219 -0.026143 -0.0573911
-0.0407161 -0.0416474 -0.0710697
-0.0473658 -0.0591896 -0.0847804
-0.0540138 -0.0782939 -0.0985708
-0.0605423 -0.0984166 -0.112534
-0.066899 -0.119343 -0.126731
-0.0729374 -0.140646 -0.141304
-0.0784692 -0.161843 -0.156183
-0.0834358 -0.182782 -0.171469
-0.0877258 -0.203166 -0.187012
-0.0914415 -0.222981 -0.202868
-0.0948175 -0.242304 -0.218894
-0.0979385 -0.261189 -0.234975
-0.100844 -0.279669 -0.251037
-0.103552 -0.297763 -0.267019
-0.10607 -0.315479 -0.282872
-0.108404 -0.332821 -0.29855
-0.110555 -0.349787 -0.314009
-0.112526 -0.366375 -0.329204
-0.114319 -0.38258 -0.344088
-0.115937 -0.398397 -0.358617
-0.117384 -0.413818 -0.372742
-0.118661 -0.428838 -0.386414
-0.119773 -0.443448 -0.399586
-0.120723 -0.457641 -0.412205
-0.121516 -0.471409 -0.42422
-0.122157 -0.484744 -0.435578
-0.122652 -0.497637 -0.446226
-0.123007 -0.510079 -0.456107
-0.12323 -0.52206 -0.465165
-0.123332 -0.533571 -0.473341
-0.123325 -0.544601 -0.480576
-0.123225 -0.555143 -0.486805
-0.123068 -0.565195 -0.491948
-0.122856 -0.574749 -0.495833
-0.122485 -0.583839 -0.498257
-0.12127 -0.575608 -0.499193
-0.120678 -0.566046 -0.495814
-0.120134 -0.556132 -0.491743
-0.11952 -0.545694 -0.486539
-0.118835 -0.534757 -0.480254
-0.118061 -0.523328 -0.472929
-0.117189 -0.511418 -0.464624
-0.116209 -0.499036 -0.4554
-0.115114 -0.486192 -0.445318
-0.113897 -0.472896 -0.434437
-0.112553 -0.459156 -0.422813
-0.111078 -0.444981 -0.410502
-0.109467 -0.430379 -0.397558
-0.107719 -0.415359 -0.384033
-0.10583 -0.399928 -0.369979
-0.103798 -0.384095 -0.355446
-0.101623 -0.367866 -0.340483
-0.0993027 -0.35125 -0.32514
-0.0968366 -0.334254 -0.309463
-0.0942242 -0.316886 -0.293501
-0.0914652 -0.299157 -0.277299
-0.088559 -0.281076 -0.260902
-0.0855051 -0.262658 -0.244354
-0.0823013 -0.243922 -0.227694
-0.0789439 -0.224894 -0.210958
-0.0754207 -0.20561 -0.194173
-0.0717309 -0.186112 -0.17734
-0.0677823 -0.166438 -0.160392
-0.0642237 -0.146725 -0.142404
-0.0525712 -0.106432 -0.112016
-0.0481977 -0.0876717 -0.0984637
-0.041271 -0.0685372 -0.085818
-0.0333137 -0.0529799 -0.0723056
-0.0280711 -0.0380096 -0.0599523
-0.0202232 -0.0240712 -0.0519386
-0.0129295 -0.0137118 -0.0344096
-0.00784929 -0.00431215 -0.0211431
-0.00325294 0.00231347 -0.00983994
-0.11397 -0.584645 -0.516168
-0.114189 -0.576394 -0.514394
-0.114274 -0.567613 -0.511478
-0.114289 -0.558258 -0.507391
-0.114237 -0.548351 -0.502196
-0.114098 -0.537912 -0.495971
-0.113854 -0.526956 -0.488782
-0.113493 -0.515494 -0.480691
-0.113003 -0.503537 -0.471757
-0.112378 -0.491095 -0.462038
-0.111611 -0.478178 -0.451589
-0.110694 -0.464796 -0.440465
-0.109624 -0.450958 -0.42872
-0.108395 -0.436672 -0.416407
-0.107004 -0.421946 -0.403576
-0.105448 -0.40679 -0.390278
-0.103723 -0.391209 -0.376562
-0.101828 -0.375212 -0.362476
-0.099762 -0.358803 -0.348066
-0.0975254 -0.341989 -0.333381
-0.0951212 -0.324772 -0.318465
-0.0925553 -0.307153 -0.303367
-0.0898382 -0.289125 -0.288137
-0.086985 -0.270675 -0.272832
-0.0840127 -0.251775 -0.257521
-0.0809295 -0.232384 -0.242283
-0.0777013 -0.212451 -0.2272
-0.0742213 -0.191968 -0.212302
-0.0703317 -0.170958 -0.19751
-0.0659708 -0.149696 -0.182571
-0.0613235 -0.128415 -0.167343
-0.0565051 -0.10753 -0.151799
-0.0515467 -0.0874881 -0.13574
-0.0465714 -0.0685648 -0.119104
-0.0415637 -0.0511915 -0.10186
-0.0364405 -0.0358634 -0.0838387
-0.0309819 -0.0230127 -0.0649634
-0.0243903 -0.0135825 -0.0450462
-0.0163629 -0.0089064 -0.0239019
-0.00231311 -0.00915497 -0.0172978
-0.00603024 -0.0149464 -0.0349469
-0.0112194 -0.0235286 -0.0525157
-0.0158028 -0.0344597 -0.0701166
-0.022238 -0.0473551 -0.0869694
-0.0279089 -0.0621695 -0.103796
-0.0327682 -0.0789872 -0.120187
-0.0391239 -0.0969039 -0.136202
-0.0441667 -0.115996 -0.152433
-0.0483422 -0.136141 -0.168431
-0.0535751 -0.156493 -0.18457
-0.0572419 -0.176482 -0.200463
-0.0610882 -0.196036 -0.216759
-0.064772 -0.215493 -0.233088
-0.0683296 -0.234754 -0.249332
-0.0717496 -0.253748 -0.265465
-0.075032 -0.27243 -0.281469
-0.0781746 -0.29077 -0.297323
-0.0811757 -0.308746 -0.312997
-0.0840341 -0.326344 -0.328453
-0.0867494 -0.343551 -0.343651
-0.0893212 -0.360359 -0.358546
-0.09175 -0.376758 -0.373092
-0.0940364 -0.392741 -0.387241
-0.0961816 -0.408299 -0.400946
-0.098187 -0.423424 -0.414156
-0.100055 -0.438108 -0.426821
-0.101787 -0.452342 -0.438888
-0.103388 -0.466117 -0.450305
-0.10486 -0.479424 -0.461016
-0.106209 -0.492254 -0.470966
-0.10744 -0.504596 -0.480098
-0.108559 -0.51644 -0.488351
-0.109574 -0.527774 -0.495664
-0.110495 -0.538589 -0.501977
-0.11133 -0.548872 -0.507229
-0.112092 -0.558614 -0.511365
-0.112791 -0.567829 -0.514315
-0.113474 -0.576267 -0.51592
0 0 0
0 0 0
0 0 0
0 0 0
0 0 0
-0.121689 -0.579507 -0.497727
-0.12162 -0.581293 -0.499165
-0.118091 -0.577424 -0.505527
-0.114335 -0.582168 -0.515947
-0.114477 -0.579868 -0.515312
0.00824267 -0.00319878 -0.012426
0.00879846 -0.00497149 -0.0247016
0.00634773 -0.0101817 -0.0379834
0.00179775 -0.0183535 -0.0522881
-0.00361649 -0.0293534 -0.0675321
-0.00943789 -0.042658 -0.0835056
-0.0153433 -0.0580576 -0.100004
-0.0209305 -0.0754981 -0.116888
-0.0262072 -0.0943729 -0.133963
-0.0311265 -0.114322 -0.151096
-0.0356005 -0.135105 -0.168154
-0.0398627 -0.156087 -0.184985
-0.0440369 -0.176924 -0.201613
-0.0481652 -0.197412 -0.218207
-0.052189 -0.217491 -0.234822
-0.0560669 -0.237143 -0.251441
-0.0597925 -0.256381 -0.268005
-0.0633752 -0.275212 -0.284459
-0.0668256 -0.293641 -0.300747
-0.0701519 -0.311669 -0.316822
-0.0733596 -0.329292 -0.332637
-0.0764512 -0.346507 -0.348143
-0.0794282 -0.363307 -0.363294
-0.082291 -0.379687 -0.37804
-0.08504 -0.395637 -0.392332
-0.0876756 -0.411152 -0.406119
-0.0901987 -0.426223 -0.419349
-0.0926104 -0.440841 -0.431968
-0.0949126 -0.454997 -0.443921
-0.0971079 -0.468682 -0.455152
-0.0991995 -0.481887 -0.465604
-0.101192 -0.494602 -0.475217
-0.103089 -0.506815 -0.483931
-0.104898 -0.518517 -0.491682
-0.106623 -0.529694 -0.498405
-0.108265 -0.540332 -0.504027
-0.109831 -0.550406 -0.508464
-0.111349 -0.559884 -0.511639
-0.112921 -0.568792 -0.513576
-0.119869 -0.567944 -0.495429
-0.118446 -0.558143 -0.492805
-0.117121 -0.547838 -0.488621
-0.115722 -0.537025 -0.483105
-0.114228 -0.525715 -0.476438
-0.112652 -0.513912 -0.468698
-0.110988 -0.501625 -0.459954
-0.109231 -0.488863 -0.450268
-0.107376 -0.475638 -0.439703
-0.105418 -0.461957 -0.428319
-0.103353 -0.447832 -0.416175
-0.101178 -0.433269 -0.403326
-0.0988906 -0.418278 -0.389829
-0.0964892 -0.402866 -0.375739
-0.0939728 -0.387042 -0.361106
-0.091341 -0.370813 -0.345985
-0.0885941 -0.354185 -0.330424
-0.0857327 -0.337165 -0.314473
-0.082758 -0.31976 -0.298181
-0.0796715 -0.301974 -0.281594
-0.0764749 -0.283813 -0.264761
-0.0731704 -0.265279 -0.247729
-0.0697618 -0.246375 -0.230548
-0.066257 -0.2271 -0.213274
-0.0626736 -0.207451 -0.195974
-0.0590544 -0.187418 -0.178733
-0.055461 -0.166987 -0.161657
-0.0521127 -0.146171 -0.144911
-0.0487371 -0.125187 -0.12824
-0.0446988 -0.104727 -0.112146
-0.0402975 -0.0848626 -0.0967723
-0.0350985 -0.0662518 -0.0819758
-0.0289596 -0.0494508 -0.0682811
-0.0226868 -0.0343069 -0.0556365
-0.01594 -0.0214829 -0.0436887
-0.00885719 -0.0113823 -0.0331164
-0.00270311 -0.00364557 -0.0239005
0.0019121 0.00133378 -0.0155968
0.0040279 0.00384073 -0.00832473
0 0 0
0 0 0
-0.117655 -0.586785 -0.508677
-0.117663 -0.589838 -0.508408
-0.00526791 0.00249453 -0.010452
-0.00766606 0.00281979 -0.0115268
-0.0113014 -0.00459951 -0.0221687
-0.01561 -0.00408582 -0.0247197
-0.0175901 -0.0148477 -0.0354137
-0.0222869 -0.0143469 -0.0385305
-0.0230862 -0.0282023 -0.0483635
-0.0289202 -0.0268101 -0.052622
-0.0311918 -0.0403515 -0.0626274
-0.0357292 -0.0418131 -0.0662343
-0.0376097 -0.0566426 -0.075822
-0.0423076 -0.0584048 -0.0798973
-0.0433869 -0.0754382 -0.0895446
-0.0489098 -0.0763493 -0.0938394
-0.0516048 -0.0919832 -0.103305
-0.0556117 -0.0958286 -0.107892
-0.0567314 -0.11187 -0.117346
-0.0618851 -0.115906 -0.122223
-0.0619758 -0.133248 -0.1333
-0.0676668 -0.13634 -0.137113
-0.0690607 -0.151919 -0.148224
-0.0733264 -0.157136 -0.152686
-0.0731124 -0.1722 -0.164536
-0.0782942 -0.177492 -0.168314
-0.0770683 -0.191949 -0.181203
-0.0824181 -0.197544 -0.184423
-0.0807944 -0.211451 -0.197812
-0.0861429 -0.217189 -0.200709
-0.084278 -0.230679 -0.214391
-0.0895746 -0.236453 -0.217035
-0.0875612 -0.249615 -0.230923
-0.0927767 -0.255355 -0.233353
-0.0906661 -0.268239 -0.247385
-0.0957818 -0.273901 -0.249617
-0.0936043 -0.286534 -0.263739
-0.0986047 -0.292091 -0.265786
-0.0963804 -0.304484 -0.279946
-0.101252 -0.309923 -0.281815
-0.0989963 -0.322081 -0.295964
-0.103725 -0.327391 -0.29766
-0.101453 -0.339313 -0.311747
-0.106028 -0.344491 -0.313277
-0.103752 -0.356173 -0.327249
-0.108162 -0.361216 -0.32862
-0.105894 -0.372654 -0.342425
-0.110128 -0.37756 -0.343644
-0.107881 -0.388747 -0.357226
-0.111928 -0.393515 -0.358301
-0.109714 -0.404445 -0.371604
-0.113566 -0.409076 -0.372543
-0.111396 -0.41974 -0.385511
-0.115044 -0.424235 -0.386323
-0.112929 -0.434626 -0.398896
-0.116364 -0.438984 -0.39959
-0.114316 -0.449094 -0.411707
-0.117531 -0.453316 -0.412294
-0.11556 -0.463136 -0.423894
-0.118548 -0.467222 -0.424382
-0.116667 -0.476743 -0.435403
-0.119419 -0.480695 -0.435802
-0.117639 -0.489907 -0.446177
-0.120151 -0.493724 -0.4465
-0.118484 -0.502619 -0.456163
-0.120749 -0.506302 -0.456418
-0.119209 -0.51487 -0.4653
-0.121221 -0.518419 -0.465501
-0.119821 -0.52665 -0.473529
-0.121575 -0.530066 -0.473688
-0.120331 -0.537948 -0.48079
-0.121825 -0.541232 -0.480918
-0.120756 -0.548756 -0.48702
-0.121989 -0.551908 -0.487126
-0.121121 -0.559062 -0.49216
-0.122091 -0.562086 -0.492238
-0.121431 -0.568875 -0.496202
-0.122195 -0.57176 -0.496183
-0.122062 -0.578136 -0.499236
-0.122212 -0.580924 -0.498632
-0.00518805 -0.00968238 -0.0184219
-0.00883822 -0.00954372 -0.0192953
-0.0109959 -0.015608 -0.0372307
-0.0171461 -0.0153794 -0.0399882
-0.0170947 -0.0249463 -0.056224
-0.0236812 -0.0246053 -0.0600349
-0.0232325 -0.0370322 -0.074193
-0.0294866 -0.0367035 -0.0789931
-0.0283259 -0.0502137 -0.0918355
-0.0349717 -0.0513546 -0.0969278
-0.0339679 -0.0659355 -0.108944
-0.0402403 -0.0677217 -0.114202
-0.0399098 -0.0836976 -0.125346
-0.0455195 -0.085655 -0.130831
-0.0447638 -0.101719 -0.141499
-0.0507394 -0.105046 -0.146939
-0.0499145 -0.121238 -0.157547
-0.055715 -0.125113 -0.162778
-0.0552103 -0.14194 -0.17341
-0.0605332 -0.145694 -0.178317
-0.059348 -0.162016 -0.189057
-0.0650443 -0.166573 -0.19369
-0.0633043 -0.182021 -0.204845
-0.0689723 -0.18702 -0.209069
-0.0669311 -0.20173 -0.220841
-0.0725018 -0.207108 -0.224507
-0.0703884 -0.221218 -0.236837
-0.0757946 -0.226789 -0.240026
-0.0737231 -0.240431 -0.252793
-0.0789643 -0.246072 -0.25559
-0.0769492 -0.25934 -0.26867
-0.0820351 -0.264963 -0.271157
-0.0800589 -0.277915 -0.284444
-0.0849989 -0.283468 -0.286676
-0.0830411 -0.296134 -0.300085
-0.0878378 -0.301587 -0.302097
-0.0858857 -0.313982 -0.315559
-0.0905363 -0.319319 -0.317373
-0.0885852 -0.331448 -0.330824
-0.0930838 -0.336659 -0.332455
-0.0911356 -0.348522 -0.345839
-0.0954741 -0.353603 -0.347298
-0.0935345 -0.365196 -0.360558
-0.0977039 -0.370144 -0.361855
-0.0957816 -0.381461 -0.374935
-0.0997726 -0.386276 -0.376079
-0.0978773 -0.397311 -0.388923
-0.101681 -0.401991 -0.389922
-0.0998228 -0.412736 -0.402473
-0.10343 -0.417282 -0.403336
-0.10162 -0.427729 -0.415535
-0.105022 -0.432142 -0.416272
-0.103271 -0.442281 -0.428059
-0.10646 -0.446562 -0.428679
-0.10478 -0.456384 -0.439994
-0.107747 -0.460533 -0.440507
-0.106149 -0.47003 -0.451286
-0.108888 -0.474047 -0.451702
-0.107383 -0.483208 -0.461882
-0.109887 -0.487095 -0.46221
-0.108487 -0.49591 -0.471726
-0.110749 -0.499668 -0.471978
-0.109467 -0.508125 -0.480761
-0.111481 -0.511754 -0.480947
-0.11033 -0.519843 -0.488927
-0.112092 -0.523345 -0.48906
-0.111085 -0.531053 -0.496166
-0.112589 -0.534429 -0.496257
-0.111743 -0.541743 -0.502413
-0.112986 -0.544994 -0.502476
-0.112318 -0.551902 -0.50761
-0.1133 -0.555028 -0.507651
-0.112829 -0.561523 -0.511698
-0.11355 -0.564513 -0.511713
-0.113258 -0.570576 -0.514602
-0.113722 -0.573429 -0.514613
-0.113616 -0.579027 -0.516291
-0.113764 -0.58179 -0.516349
-0.00292353 -0.00256147 -0.012513
-0.0070802 -0.0091988 -0.0281372
-0.0121404 -0.0184181 -0.0434965
-0.0223286 -0.0291353 -0.0578928
-0.0245583 -0.0422341 -0.0735427
-0.0307634 -0.0572229 -0.0881115