# vtk DataFile Version 3.0
STAP++ Results
ASCII
DATASET UNSTRUCTURED_GRID
POINTS 4107 float
200 -10 0
200 10 0
150 10 0
150 -10 0
100 10 0
100 -10 0
50 10 0
50 -10 0
0 10 0
0 -10 0
-50 10 0
-50 -10 0
-100 10 0
-100 -10 0
-150 10 0
-150 -10 0
-200 10 0
-200 -10 0
-250 10 0
-250 -10 0
250 -10 0
250 10 0
200 -5 0
200 0 0
200 5 0
195 10 0
190 10 0
185 10 0
180 10 0
175 10 0
170 10 0
165 10 0
160 10 0
155 10 0
150 5 0
150 0 0
150 -5 0
155 -10 0
160 -10 0
165 -10 0
170 -10 0
175 -10 0
180 -10 0
185 -10 0
190 -10 0
195 -10 0
145 10 0
140 10 0
135 10 0
130 10 0
125 10 0
120 10 0
115 10 0
110 10 0
105 10 0
100 5 0
100 0 0
100 -5 0
105 -10 0
110 -10 0
115 -10 0
120 -10 0
125 -10 0
130 -10 0
135 -10 0
140 -10 0
145 -10 0
95 10 0
90 10 0
85 10 0
80 10 0
75 10 0
70 10 0
65 10 0
60 10 0
55 10 0
50 5 0
50 0 0
50 -5 0
55 -10 0
60 -10 0
65 -10 0
70 -10 0
75 -10 0
80 -10 0
85 -10 0
90 -10 0
95 -10 0
45 10 0
40 10 0
35 10 0
30 10 0
25 10 0
20 10 0
15 10 0
10 10 0
5 10 0
0 5 0
0 0 0
0 -5 0
5 -10 0
10 -10 0
15 -10 0
20 -10 0
25 -10 0
30 -10 0
35 -10 0
40 -10 0
45 -10 0
-5 10 0
-10 10 0
-15 10 0
-20 10 0
-25 10 0
-30 10 0
-35 10 0
-40 10 0
-45 10 0
-50 5 0
-50 0 0
-50 -5 0
-45 -10 0
-40 -10 0
-35 -10 0
-30 -10 0
-25 -10 0
-20 -10 0
-15 -10 0
-10 -10 0
-5 -10 0
-55 10 0
-60 10 0
-65 10 0
-70 10 0
-75 10 0
-80 10 0
-85 10 0
-90 10 0
-95 10 0
-100 5 0
-100 0 0
-100 -5 0
-95 -10 0
-90 -10 0
-85 -10 0
-80 -10 0
-75 -10 0
-70 -10 0
-65 -10 0
-60 -10 0
-55 -10 0
-105 10 0
-110 10 0
-115 10 0
-120 10 0
-125 10 0
-130 10 0
-135 10 0
-140 10 0
-145 10 0
-150 5 0
-150 0 0
-150 -5 0
-145 -10 0
-140 -10 0
-135 -10 0
-130 -10 0
-125 -10 0
-120 -10 0
-115 -10 0
-110 -10 0
-105 -10 0
-155 10 0
-160 10 0
-165 10 0
-170 10 0
-175 10 0
-180 10 0
-185 10 0
-190 10 0
-195 10 0
-200 5 0
-200 0 0
-200 -5 0
-195 -10 0
-190 -10 0
-185 -10 0
-180 -10 0
-175 -10 0
-170 -10 0
-165 -10 0
-160 -10 0
-155 -10 0
-205 10 0
-210 10 0
-215 10 0
-220 10 0
-225 10 0
-230 10 0
-235 10 0
-240 10 0
-245 10 0
-250 5 0
-250 0 0
-250 -5 0
-245 -10 0
-240 -10 0
-235 -10 0
-230 -10 0
-225 -10 0
-220 -10 0
-215 -10 0
-210 -10 0
-205 -10 0
205 -10 0
210 -10 0
215 -10 0
220 -10 0
225 -10 0
230 -10 0
235 -10 0
240 -10 0
245 -10 0
250 -5 0
250 0 0
250 5 0
245 10 0
240 10 0
235 10 0
230 10 0
225 10 0
220 10 0
215 10 0
210 10 0
205 10 0
195 -5 0
195 0 0
195 5 0
190 -5 0
190 0 0
190 5 0
185 -5 0
185 0 0
185 5 0
180 -5 0
180 0 0
180 5 0
175 -5 0
175 0 0
175 5 0
170 -5 0
170 0 0
170 5 0
165 -5 0
165 0 0
165 5 0
160 -5 0
160 0 0
160 5 0
155 -5 0
155 0 0
155 5 0
145 -5 0
145 0 0
145 5 0
140 -5 0
140 0 0
140 5 0
135 -5 0
135 0 0
135 5 0
130 -5 0
130 0 0
130 5 0
125 -5 0
125 0 0
125 5 0
120 -5 0
120 0 0
120 5 0
115 -5 0
115 0 0
115 5 0
110 -5 0
110 0 0
110 5 0
105 -5 0
105 0 0
105 5 0
95 -5 0
95 0 0
95 5 0
90 -5 0
90 0 0
90 5 0
85 -5 0
85 0 0
85 5 0
80 -5 0
80 0 0
80 5 0
75 -5 0
75 0 0
75 5 0
70 -5 0
70 0 0
70 5 0
65 -5 0
65 0 0
65 5 0
60 -5 0
60 0 0
60 5 0
55 -5 0
55 0 0
55 5 0
45 -5 0
45 0 0
45 5 0
40 -5 0
40 0 0
40 5 0
35 -5 0
35 0 0
35 5 0
30 -5 0
30 0 0
30 5 0
25 -5 0
25 0 0
25 5 0
20 -5 0
20 0 0
20 5 0
15 -5 0
15 0 0
15 5 0
10 -5 0
10 0 0
10 5 0
5 -5 0
5 0 0
5 5 0
-5 -5 0
-5 0 0
-5 5 0
-10 -5 0
-10 0 0
-10 5 0
-15 -5 0
-15 0 0
-15 5 0
-20 -5 0
-20 0 0
-20 5 0
-25 -5 0
-25 0 0
-25 5 0
-30 -5 0
-30 0 0
-30 5 0
-35 -5 0
-35 0 0
-35 5 0
-40 -5 0
-40 0 0
-40 5 0
-45 -5 0
-45 0 0
-45 5 0
-55 -5 0
-55 0 0
-55 5 0
-60 -5 0
-60 0 0
-60 5 0
-65 -5 0
-65 0 0
-65 5 0
-70 -5 0
-70 0 0
-70 5 0
-75 -5 0
-75 0 0
-75 5 0
-80 -5 0
-80 0 0
-80 5 0
-85 -5 0
-85 0 0
-85 5 0
-90 -5 0
-90 0 0
-90 5 0
-95 -5 0
-95 0 0
-95 5 0
-105 -5 0
-105 0 0
-105 5 0
-110 -5 0
-110 0 0
-110 5 0
-115 -5 0
-115 0 0
-115 5 0
-120 -5 0
-120 0 0
-120 5 0
-125 -5 0
-125 0 0
-125 5 0
-130 -5 0
-130 0 0
-130 5 0
-135 -5 0
-135 0 0
-135 5 0
-140 -5 0
-140 0 0
-140 5 0
-145 -5 0
-145 0 0
-145 5 0
-155 -5 0
-155 0 0
-155 5 0
-160 -5 0
-160 0 0
-160 5 0
-165 -5 0
-165 0 0
-165 5 0
-170 -5 0
-170 0 0
-170 5 0
-175 -5 0
-175 0 0
-175 5 0
-180 -5 0
-180 0 0
-180 5 0
-185 -5 0
-185 0 0
-185 5 0
-190 -5 0
-190 0 0
-190 5 0
-195 -5 0
-195 0 0
-195 5 0
-205 -5 0
-205 0 0
-205 5 0
-210 -5 0
-210 0 0
-210 5 0
-215 -5 0
-215 0 0
-215 5 0
-220 -5 0
-220 0 0
-220 5 0
-225 -5 0
-225 0 0
-225 5 0
-230 -5 0
-230 0 0
-230 5 0
-235 -5 0
-235 0 0
-235 5 0
-240 -5 0
-240 0 0
-240 5 0
-245 -5 0
-245 0 0
-245 5 0
205 5 0
205 0 0
205 -5 0
210 5 0
210 0 0
210 -5 0
215 5 0
215 0 0
215 -5 0
220 5 0
220 0 0
220 -5 0
225 5 0
225 0 0
225 -5 0
230 5 0
230 0 0
230 -5 0
235 5 0
235 0 0
235 -5 0
240 5 0
240 0 0
240 -5 0
245 5 0
245 0 0
245 -5 0
132.985 -11.8798 97.9078
131.917 -13.1754 107.766
131.915 -33.0049 105.159
132.982 -31.7092 95.3013
-66.939 -10.3645 86.5953
-66.9404 -20.2792 85.2921
-65.8726 -18.9836 75.434
-65.8712 -9.06888 76.7373
132.988 7.94962 100.514
131.92 6.65398 110.372
-65.8698 0.845839 78.0405
-66.9376 -0.449794 87.8985
132.451 -12.5276 102.837
131.917 -19.7853 106.897
131.916 -26.3951 106.028
132.449 -32.3571 100.23
132.983 -25.0994 96.1702
132.984 -18.4896 97.039
-66.4051 -9.71669 81.6663
-66.94 -16.9743 85.7265
-66.9395 -13.6694 86.1609
-66.4065 -19.6314 80.363
-65.8717 -12.3738 76.3028
-65.8722 -15.6787 75.8684
128.011 -31.3911 94.8047
123.04 -31.073 94.308
118.068 -30.7548 93.8113
113.097 -30.4367 93.3146
108.126 -30.1185 92.8179
103.154 -29.8004 92.3212
98.1828 -29.4823 91.8246
93.2115 -29.1641 91.3279
88.2401 -28.846 90.8312
83.2687 -28.5278 90.3345
78.2973 -28.2097 89.8378
73.3259 -27.8915 89.3411
68.3546 -27.5734 88.8445
63.3832 -27.2553 88.3478
58.4118 -26.9371 87.8511
53.4404 -26.619 87.3544
48.4691 -26.3008 86.8577
43.4977 -25.9827 86.361
38.5263 -25.6646 85.8644
33.5549 -25.3464 85.3677
28.5835 -25.0283 84.871
23.6122 -24.7101 84.3743
18.6408 -24.392 83.8776
13.6694 -24.0739 83.3809
8.69804 -23.7557 82.8843
3.72666 -23.4376 82.3876
-1.24472 -23.1194 81.8909
-6.21609 -22.8013 81.3942
-11.1875 -22.4831 80.8975
-16.1588 -22.165 80.4009
-21.1302 -21.8469 79.9042
-26.1016 -21.5287 79.4075
-31.073 -21.2106 78.9108
-36.0444 -20.8924 78.4141
-41.0157 -20.5743 77.9174
-45.9871 -20.2562 77.4208
-50.9585 -19.938 76.9241
-55.9299 -19.6199 76.4274
-60.9012 -19.3017 75.9307
-60.8998 -9.13915 77.2665
-55.9284 -9.20942 77.7958
-50.957 -9.2797 78.325
-45.9856 -9.34997 78.8543
-41.0142 -9.42024 79.3836
-36.0427 -9.49052 79.9128
-31.0713 -9.56079 80.4421
-26.0999 -9.63106 80.9714
-21.1285 -9.70134 81.5006
-16.1571 -9.77161 82.0299
-11.1857 -9.84188 82.5592
-6.21427 -9.91216 83.0884
-1.24285 -9.98243 83.6177
3.72856 -10.0527 84.1469
8.69997 -10.123 84.6762
13.6714 -10.1933 85.2055
18.6428 -10.2635 85.7347
23.6142 -10.3338 86.264
28.5856 -10.4041 86.7933
33.557 -10.4743 87.3225
38.5284 -10.5446 87.8518
43.4999 -10.6149 88.3811
48.4713 -10.6852 88.9103
53.4427 -10.7554 89.4396
58.4141 -10.8257 89.9689
63.3855 -10.896 90.4981
68.3569 -10.9663 91.0274
73.3283 -11.0365 91.5566
78.2997 -11.1068 92.0859
83.2712 -11.1771 92.6152
88.2426 -11.2474 93.1444
93.214 -11.3176 93.6737
98.1854 -11.3879 94.203
103.157 -11.4582 94.7322
108.128 -11.5284 95.2615
113.1 -11.5987 95.7908
118.071 -11.669 96.32
123.042 -11.7393 96.8493
128.014 -11.8095 97.3785
-61.9691 -20.5974 85.7888
-56.9977 -20.9155 86.2854
-52.0263 -21.2336 86.7821
-47.0549 -21.5518 87.2788
-42.0836 -21.8699 87.7755
-37.1122 -22.1881 88.2722
-32.1408 -22.5062 88.7689
-27.1694 -22.8244 89.2655
-22.198 -23.1425 89.7622
-17.2267 -23.4606 90.2589
-12.2553 -23.7788 90.7556
-7.28391 -24.0969 91.2523
-2.31253 -24.4151 91.7489
2.65884 -24.7332 92.2456
7.63022 -25.0513 92.7423
12.6016 -25.3695 93.239
17.573 -25.6876 93.7357
22.5444 -26.0058 94.2324
27.5157 -26.3239 94.729
32.4871 -26.6421 95.2257
37.4585 -26.9602 95.7224
42.4299 -27.2783 96.2191
47.4012 -27.5965 96.7158
52.3726 -27.9146 97.2125
57.344 -28.2328 97.7091
62.3154 -28.5509 98.2058
67.2867 -28.869 98.7025
72.2581 -29.1872 99.1992
77.2295 -29.5053 99.6959
82.2009 -29.8235 100.193
87.1723 -30.1416 100.689
92.1436 -30.4597 101.186
97.115 -30.7779 101.683
102.086 -31.096 102.179
107.058 -31.4142 102.676
112.029 -31.7323 103.173
117.001 -32.0505 103.669
121.972 -32.3686 104.166
126.943 -32.6867 104.663
126.946 -13.1052 107.237
121.975 -13.0349 106.707
117.003 -12.9646 106.178
112.032 -12.8944 105.649
107.06 -12.8241 105.12
102.089 -12.7538 104.59
97.1176 -12.6835 104.061
92.1462 -12.6133 103.532
87.1748 -12.543 103.002
82.2033 -12.4727 102.473
77.2319 -12.4024 101.944
72.2605 -12.3322 101.415
67.2891 -12.2619 100.885
62.3177 -12.1916 100.356
57.3463 -12.1213 99.8269
52.3749 -12.0511 99.2976
47.4035 -11.9808 98.7684
42.432 -11.9105 98.2391
37.4606 -11.8403 97.7098
32.4892 -11.77 97.1806
27.5178 -11.6997 96.6513
22.5464 -11.6294 96.1221
17.575 -11.5592 95.5928
12.6036 -11.4889 95.0635
7.63216 -11.4186 94.5343
2.66074 -11.3483 94.005
-2.31067 -11.2781 93.4757
-7.28208 -11.2078 92.9465
-12.2535 -11.1375 92.4172
-17.2249 -11.0672 91.8879
-22.1963 -10.997 91.3587
-27.1677 -10.9267 90.8294
-32.1391 -10.8564 90.3001
-37.1106 -10.7861 89.7709
-42.082 -10.7159 89.2416
-47.0534 -10.6456 88.7124
-52.0248 -10.5753 88.1831
-56.9962 -10.5051 87.6538
-61.9676 -10.4348 87.1246
132.986 -5.27001 98.7766
132.987 1.3398 99.6455
132.454 7.3018 105.443
131.919 0.044173 109.504
131.918 -6.56564 108.635
-65.8703 -2.45907 77.6061
-65.8707 -5.76397 77.1717
-66.4037 0.198022 82.9695
-66.9386 -7.0596 87.0297
-66.9381 -3.7547 87.4641
126.949 6.47639 109.81
121.977 6.29879 109.249
117.006 6.1212 108.687
112.034 5.94361 108.125
107.063 5.76601 107.563
102.092 5.58842 107.001
97.1201 5.41082 106.439
92.1487 5.23323 105.878
87.1772 5.05563 105.316
82.2058 4.87804 104.754
77.2344 4.70044 104.192
72.2629 4.52285 103.63
67.2915 4.34526 103.068
62.32 4.16766 102.506
57.3486 3.99007 101.945
52.3771 3.81247 101.383
47.4057 3.63488 100.821
42.4342 3.45728 100.259
37.4628 3.27969 99.6973
32.4913 3.10209 99.1354
27.5199 2.9245 98.5736
22.5484 2.74691 98.0117
17.577 2.56931 97.4499
12.6055 2.39172 96.888
7.63409 2.21412 96.3262
2.66264 2.03653 95.7644
-2.30881 1.85893 95.2025
[...]
POINT_DATA 4107
VECTORS Displacement float
nan nan nan
nan nan nan
nan nan nan
nan nan nan
nan nan nan
nan nan nan
nan nan nan
nan nan nan
nan nan nan
nan nan nan
nan nan nan
nan nan nan
nan nan nan
nan nan nan
nan nan nan
nan nan nan
nan nan nan
nan nan nan
nan nan nan
nan nan nan
nan nan nan
nan nan nan
0 0 nan
0 0 nan
0 0 nan
0 0 nan
0 0 nan
0 0 nan
0 0 nan
0 0 nan
0 0 nan
0 0 nan
0 0 nan
0 0 nan
0 0 nan
0 0 nan
0 0 nan
0 0 nan
0 0 nan
0 0 nan
0 0 nan
0 0 nan
0 0 nan
0 0 nan
0 0 nan
0 0 nan
0 0 nan
0 0 nan
0 0 nan
0 0 nan
0 0 nan
0 0 nan
0 0 nan
0 0 nan
0 0 nan
0 0 nan
0 0 nan
0 0 nan
0 0 nan
0 0 nan
0 0 nan
0 0 nan
0 0 nan
0 0 nan
0 0 nan
0 0 nan
0 0 nan
0 0 nan
0 0 nan
0 0 nan
0 0 nan
0 0 nan
0 0 nan
0 0 nan
0 0 nan
0 0 nan
0 0 nan
0 0 nan
0 0 nan
0 0 nan
0 0 nan
0 0 nan
0 0 nan
0 0 nan
0 0 nan
0 0 nan
0 0 nan
0 0 nan
0 0 nan
0 0 nan
0 0 nan
0 0 nan
0 0 nan
0 0 nan
0 0 nan
0 0 nan
0 0 nan
0 0 nan
0 0 nan
0 0 nan
0 0 nan
0 0 nan
0 0 nan
0 0 nan
0 0 nan
0 0 nan
0 0 nan
0 0 nan
0 0 nan
0 0 nan
0 0 nan
0 0 nan
0 0 nan
0 0 nan
0 0 nan
0 0 nan
0 0 nan
0 0 nan
0 0 nan
0 0 nan
0 0 nan
0 0 nan
0 0 nan
0 0 nan
0 0 nan
0 0 nan
0 0 nan
0 0 nan
0 0 nan
0 0 nan
0 0 nan
0 0 nan
0 0 nan
0 0 nan
0 0 nan
0 0 nan
0 0 nan
0 0 nan
0 0 nan
0 0 nan
0 0 nan
0 0 nan
0 0 nan
0 0 nan
0 0 nan
0 0 nan
0 0 nan
0 0 nan
0 0 nan
0 0 nan
0 0 nan
0 0 nan
0 0 nan
0 0 nan
0 0 nan
0 0 nan
0 0 nan
0 0 nan
0 0 nan
0 0 nan
0 0 nan
0 0 nan
0 0 nan
0 0 nan
0 0 nan
0 0 nan
0 0 nan
0 0 nan
0 0 nan
0 0 nan
0 0 nan
0 0 nan
0 0 nan
0 0 nan
0 0 nan
0 0 nan
0 0 nan
0 0 nan
0 0 nan
0 0 nan
0 0 nan
0 0 nan
0 0 nan
0 0 nan
0 0 nan
0 0 nan
0 0 nan
0 0 nan
0 0 nan
0 0 nan
0 0 nan
0 0 nan
0 0 nan
0 0 nan
0 0 nan
0 0 nan
0 0 nan
0 0 nan
0 0 nan
0 0 nan
0 0 nan
0 0 nan
nan nan nan
nan nan nan
nan nan nan
0 0 nan
0 0 nan
0 0 nan
0 0 nan
0 0 nan
0 0 nan
0 0 nan
0 0 nan
0 0 nan
0 0 nan
0 0 nan
0 0 nan
0 0 nan
0 0 nan
0 0 nan
0 0 nan
0 0 nan
0 0 nan
nan nan nan
nan nan nan
nan nan nan
0 0 nan
0 0 nan
0 0 nan
0 0 nan
0 0 nan
0 0 nan
0 0 nan
0 0 nan
0 0 nan
0 0 nan
0 0 nan
0 0 nan
0 0 nan
0 0 nan
0 0 nan
0 0 nan
0 0 nan
0 0 nan
0 0 nan
0 0 nan
0 0 nan
0 0 nan
0 0 nan
0 0 nan
0 0 nan
0 0 nan
0 0 nan
0 0 nan
0 0 nan
0 0 nan
0 0 nan
0 0 nan
0 0 nan
0 0 nan
0 0 nan
0 0 nan
0 0 nan
0 0 nan
0 0 nan
0 0 nan
0 0 nan
0 0 nan
0 0 nan
0 0 nan
0 0 nan
0 0 nan
0 0 nan
0 0 nan
0 0 nan
0 0 nan
0 0 nan
0 0 nan
0 0 nan
0 0 nan
0 0 nan
0 0 nan
0 0 nan
0 0 nan
0 0 nan
0 0 nan
0 0 nan
0 0 nan
0 0 nan
0 0 nan
0 0 nan
0 0 nan
0 0 nan
0 0 nan
0 0 nan
0 0 nan
0 0 nan
0 0 nan
0 0 nan
0 0 nan
0 0 nan
0 0 nan
0 0 nan
0 0 nan
0 0 nan
0 0 nan
0 0 nan
0 0 nan
0 0 nan
0 0 nan
0 0 nan
0 0 nan
0 0 nan
0 0 nan
0 0 nan
0 0 nan
0 0 nan
0 0 nan
0 0 nan
0 0 nan
0 0 nan
0 0 nan
0 0 nan
0 0 nan
0 0 nan
0 0 nan
0 0 nan
0 0 nan
0 0 nan
0 0 nan
0 0 nan
0 0 nan
0 0 nan
0 0 nan
0 0 nan
0 0 nan
0 0 nan
0 0 nan
0 0 nan
0 0 nan
0 0 nan
0 0 nan
0 0 nan
0 0 nan
0 0 nan
0 0 nan
0 0 nan
0 0 nan
0 0 nan
0 0 nan
0 0 nan
0 0 nan
0 0 nan
0 0 nan
0 0 nan
0 0 nan
0 0 nan
0 0 nan
0 0 nan
0 0 nan
0 0 nan
0 0 nan
0 0 nan
0 0 nan
0 0 nan
0 0 nan
0 0 nan
0 0 nan
0 0 nan
0 0 nan
0 0 nan
0 0 nan
0 0 nan
0 0 nan
0 0 nan
0 0 nan
0 0 nan
0 0 nan
0 0 nan
0 0 nan
0 0 nan
0 0 nan
0 0 nan
0 0 nan
0 0 nan
0 0 nan
0 0 nan
0 0 nan
0 0 nan
0 0 nan
0 0 nan
0 0 nan
0 0 nan
0 0 nan
0 0 nan
0 0 nan
0 0 nan
0 0 nan
0 0 nan
0 0 nan
0 0 nan
0 0 nan
0 0 nan
0 0 nan
0 0 nan
0 0 nan
0 0 nan
0 0 nan
0 0 nan
0 0 nan
0 0 nan
0 0 nan
0 0 nan
0 0 nan
0 0 nan
0 0 nan
0 0 nan
0 0 nan
0 0 nan
0 0 nan
0 0 nan
0 0 nan
0 0 nan
0 0 nan
0 0 nan
0 0 nan
0 0 nan
0 0 nan
0 0 nan
0 0 nan
0 0 nan
0 0 nan
0 0 nan
0 0 nan
0 0 nan
0 0 nan
0 0 nan
0 0 nan
0 0 nan
0 0 nan
0 0 nan
0 0 nan
0 0 nan
0 0 nan
0 0 nan
0 0 nan
0 0 nan
0 0 nan
0 0 nan
0 0 nan
0 0 nan
0 0 nan
0 0 nan
0 0 nan
0 0 nan
0 0 nan
0 0 nan
0 0 nan
0 0 nan
0 0 nan
0 0 nan
0 0 nan
0 0 nan
0 0 nan
0 0 nan
0 0 nan
0 0 nan
0 0 nan
0 0 nan
0 0 nan
0 0 nan
0 0 nan
0 0 nan
0 0 nan
0 0 nan
0 0 nan
0 0 nan
0 0 nan
0 0 nan
0 0 nan
0 0 nan
0 0 nan
0 0 nan
0 0 nan
0 0 nan
0 0 nan
0 0 nan
0 0 nan
0 0 nan
0 0 nan
0 0 nan
0 0 nan
0 0 nan
0 0 nan
0 0 nan
0 0 nan
0 0 nan
0 0 nan
0 0 nan
0 0 nan
0 0 nan
0 0 nan
0 0 nan
0 0 nan
0 0 nan
nan nan nan
nan nan nan
nan nan nan
nan nan nan
nan nan nan
nan nan nan
nan nan nan
nan nan nan
nan nan nan
nan nan nan
nan nan nan
nan nan nan
nan nan nan
nan nan nan
nan nan nan
nan nan nan
nan nan nan
nan nan nan
nan nan nan
nan nan nan
nan nan nan
nan nan nan
nan nan nan
nan nan nan
nan nan nan
nan nan nan
nan nan nan
nan nan nan
nan nan nan
nan nan nan
nan nan nan
nan nan nan
nan nan nan
nan nan nan
nan nan nan
nan nan nan
nan nan nan
nan nan nan
nan nan nan
nan nan nan
nan nan nan
nan nan nan
nan nan nan
nan nan nan
nan nan nan
nan nan nan
nan nan nan
nan nan nan
nan nan nan
nan nan nan
nan nan nan
nan nan nan
nan nan nan
nan nan nan
nan nan nan
nan nan nan
nan nan nan
nan nan nan
nan nan nan
nan nan nan
nan nan nan
nan nan nan
nan nan nan
nan nan nan
nan nan nan
nan nan nan
nan nan nan
nan nan nan
nan nan nan
nan nan nan
nan nan nan
nan nan nan
nan nan nan
nan nan nan
nan nan nan
nan nan nan
nan nan nan
nan nan nan
nan nan nan
nan nan nan
nan nan nan
nan nan nan
nan nan nan
nan nan nan
nan nan nan
nan nan nan
nan nan nan
nan nan nan
nan nan nan
nan nan nan
nan nan nan
nan nan nan
nan nan nan
nan nan nan
nan nan nan
nan nan nan
nan nan nan
nan nan nan
nan nan nan
nan nan nan
nan nan nan
nan nan nan
nan nan nan
nan nan nan
nan nan nan
nan nan nan
nan nan nan
nan nan nan
nan nan nan
nan nan nan
nan nan nan
nan nan nan
nan nan nan
nan nan nan
nan nan nan
nan nan nan
nan nan nan
nan nan nan
nan nan nan
nan nan nan
nan nan nan
nan nan nan
nan nan nan
nan nan nan
nan nan nan
nan nan nan
nan nan nan
nan nan nan
nan nan nan
nan nan nan
nan nan nan
nan nan nan
nan nan nan
nan nan nan
nan nan nan
nan nan nan
nan nan nan
nan nan nan
nan nan nan
nan nan nan
nan nan nan
nan nan nan
nan nan nan
nan nan nan
nan nan nan
nan nan nan
nan nan nan
nan nan nan
nan nan nan
nan nan nan
nan nan nan
nan nan nan
nan nan nan
nan nan nan
nan nan nan
nan nan nan
nan nan nan
nan nan nan
nan nan nan
nan nan nan
nan nan nan
nan nan nan
nan nan nan
nan nan nan
nan nan nan
nan nan nan
nan nan nan
nan nan nan
nan nan nan
nan nan nan
nan nan nan
nan nan nan
nan nan nan
nan nan nan
nan nan nan
nan nan nan
nan nan nan
nan nan nan
nan nan nan
nan nan nan
nan nan nan
nan nan nan
nan nan nan
nan nan nan
nan nan nan
nan nan nan
nan nan nan
nan nan nan
nan nan nan
nan nan nan
nan nan nan
nan nan nan
nan nan nan
nan nan nan
nan nan nan
nan nan nan
nan nan nan
nan nan nan
nan nan nan
nan nan nan
nan nan nan
nan nan nan
nan nan nan
nan nan nan
nan nan nan
nan nan nan
nan nan nan
nan nan nan
nan nan nan
nan nan nan
nan nan nan
nan nan nan
nan nan nan
nan nan nan
nan nan nan
nan nan nan
nan nan nan
nan nan nan
nan nan nan
nan nan nan
nan nan nan
nan nan nan
nan nan nan
nan nan nan
nan nan nan
nan nan nan
nan nan nan
nan nan nan
nan nan nan
nan nan nan
nan nan nan
nan nan nan
nan nan nan
nan nan nan
nan nan nan
nan nan nan
nan nan nan
nan nan nan
nan nan nan
nan nan nan
nan nan nan
nan nan nan
nan nan nan
nan nan nan
nan nan nan
nan nan nan
nan nan nan
nan nan nan
nan nan nan
nan nan nan
nan nan nan
nan nan nan
nan nan nan
nan nan nan
nan nan nan
nan nan nan
nan nan nan
nan nan nan
nan nan nan
nan nan nan
nan nan nan
nan nan nan
nan nan nan
nan nan nan
nan nan nan
nan nan nan
nan nan nan
nan nan nan
nan nan nan
nan nan nan
nan nan nan
nan nan nan
nan nan nan
nan nan nan
nan nan nan
nan nan nan
nan nan nan
nan nan nan
nan nan nan
nan nan nan
nan nan nan
nan nan nan
nan nan nan
nan nan nan
nan nan nan
nan nan nan
nan nan nan
nan nan nan
nan nan nan
nan nan nan
nan nan nan
nan nan nan
nan nan nan
nan nan nan
nan nan nan
nan nan nan
nan nan nan
nan nan nan
nan nan nan
nan nan nan
nan nan nan
nan nan nan
nan nan nan
nan nan nan
nan nan nan
nan nan nan
nan nan nan
nan nan nan
nan nan nan
nan nan nan
nan nan nan
nan nan nan
nan nan nan
nan nan nan
nan nan nan
nan nan nan
nan nan nan
nan nan nan
nan nan nan
nan nan nan
nan nan nan
nan nan nan
nan nan nan
nan nan nan
nan nan nan
nan nan nan
nan nan nan
nan nan nan
nan nan nan
nan nan nan
nan nan nan
nan nan nan
nan nan nan
nan nan nan
nan nan nan
nan nan nan
nan nan nan
nan nan nan
nan nan nan
nan nan nan
nan nan nan
nan nan nan
nan nan nan
nan nan nan
nan nan nan
nan nan nan
nan nan nan
nan nan nan
nan nan nan
nan nan nan
nan nan nan
nan nan nan
nan nan nan
nan nan nan
nan nan nan
nan nan nan
nan nan nan
nan nan nan
nan nan nan
nan nan nan
nan nan nan
nan nan nan
nan nan nan
nan nan nan
nan nan nan
nan nan nan
nan nan nan
nan nan nan
nan nan nan
nan nan nan
nan nan nan
nan nan nan
nan nan nan
nan nan nan
nan nan nan
nan nan nan
nan nan nan
nan nan nan
nan nan nan
nan nan nan
nan nan nan
nan nan nan
nan nan nan
nan nan nan
nan nan nan
nan nan nan
nan nan nan
nan nan nan
nan nan nan
nan nan nan
nan nan nan
nan nan nan
nan nan nan
nan nan nan
nan nan nan
nan nan nan
nan nan nan
nan nan nan
nan nan nan
nan nan nan
nan nan nan
nan nan nan
nan nan nan
nan nan nan
nan nan nan
nan nan nan
nan nan nan
nan nan nan
nan nan nan
nan nan nan
nan nan nan
nan nan nan
nan nan nan
nan nan nan
nan nan nan
nan nan nan
nan nan nan
nan nan nan
nan nan nan
nan nan nan
nan nan nan
nan nan nan
nan nan nan
nan nan nan
nan nan nan
nan nan nan
nan nan nan
nan nan nan
nan nan nan
nan nan nan
nan nan nan
nan nan nan
nan nan nan
nan nan nan
nan nan nan
nan nan nan
nan nan nan
nan nan nan
nan nan nan
nan nan nan
nan nan nan
nan nan nan
nan nan nan
nan nan nan
nan nan nan
nan nan nan
nan nan nan
nan nan nan
nan nan nan
nan nan nan
nan nan nan
nan nan nan
nan nan nan
nan nan nan
nan nan nan
nan nan nan
nan nan nan
nan nan nan
nan nan nan
nan nan nan
nan nan nan
nan nan nan
nan nan nan
nan nan nan
nan nan nan
nan nan nan
nan nan nan
nan nan nan
nan nan nan
nan nan nan
nan nan nan
nan nan nan
nan nan nan
nan nan nan
nan nan nan
nan nan nan
nan nan nan
nan nan nan
nan nan nan
nan nan nan
nan nan nan
nan nan nan
nan nan nan
nan nan nan
nan nan nan
nan nan nan
nan nan nan
nan nan nan
nan nan nan
nan nan nan
nan nan nan
nan nan nan
nan nan nan
nan nan nan
nan nan nan
nan nan nan
nan nan nan
nan nan nan
nan nan nan
nan nan nan
nan nan nan
nan nan nan
nan nan nan
nan nan nan
nan nan nan
nan nan nan
nan nan nan
nan nan nan
nan nan nan
nan nan nan
nan nan nan
nan nan nan
nan nan nan
nan nan nan
nan nan nan
nan nan nan
nan nan nan
nan nan nan
nan nan nan
nan nan nan
nan nan nan
nan nan nan
nan nan nan
nan nan nan
nan nan nan
nan nan nan
nan nan nan
nan nan nan
nan nan nan
nan nan nan
nan nan nan
nan nan nan
nan nan nan
nan nan nan
nan nan nan
nan nan nan
nan nan nan
nan nan nan
nan nan nan
nan nan nan
nan nan nan
nan nan nan
nan nan nan
nan nan nan
nan nan nan
nan nan nan
nan nan nan
nan nan nan
nan nan nan
nan nan nan
nan nan nan
nan nan nan
nan nan nan
nan nan nan
nan nan nan
nan nan nan
nan nan nan
nan nan nan
nan nan nan
nan nan nan
nan nan nan
nan nan nan
nan nan nan
nan nan nan
nan nan nan
nan nan nan
nan nan nan
nan nan nan
nan nan nan
nan nan nan
nan nan nan
nan nan nan
nan nan nan
nan nan nan
nan nan nan
nan nan nan
nan nan nan
nan nan nan
nan nan nan
nan nan nan
nan nan nan
nan nan nan
nan nan nan
nan nan nan
nan nan nan
nan nan nan
nan nan nan
nan nan nan
nan nan nan
nan nan nan
nan nan nan
nan nan nan
nan nan nan
nan nan nan
nan nan nan
nan nan nan
nan nan nan
nan nan nan
nan nan nan
nan nan nan
nan nan nan
nan nan nan
nan nan nan
nan nan nan
nan nan nan
nan nan nan
nan nan nan
nan nan nan
nan nan nan
nan nan nan
nan nan nan
nan nan nan
nan nan nan
nan nan nan
nan nan nan
nan nan nan
nan nan nan
nan nan nan
nan nan nan
nan nan nan
nan nan nan
nan nan nan
nan nan nan
nan nan nan
nan nan nan
nan nan nan
nan nan nan
nan nan nan
nan nan nan
nan nan nan
nan nan nan
nan nan nan
nan nan nan
nan nan nan
nan nan nan
nan nan nan
nan nan nan
nan nan nan
nan nan nan
nan nan nan
nan nan nan
nan nan nan
nan nan nan
nan nan nan
nan nan nan
nan nan nan
nan nan nan
nan nan nan
nan nan nan
nan nan nan
nan nan nan
nan nan nan
nan nan nan
nan nan nan
nan nan nan
nan nan nan
nan nan nan
nan nan nan
nan nan nan
nan nan nan
nan nan nan
nan nan nan
nan nan nan
nan nan nan
nan nan nan
nan nan nan
nan nan nan
nan nan nan
nan nan nan
nan nan nan
nan nan nan
nan nan nan
nan nan nan
nan nan nan
nan nan nan
nan nan nan
nan nan nan
nan nan nan
nan nan nan
nan nan nan
nan nan nan
nan nan nan
nan nan nan
nan nan nan
nan nan nan
nan nan nan
nan nan nan
nan nan nan
nan nan nan
nan nan nan
nan nan nan
nan nan nan
nan nan nan
nan nan nan
nan nan nan
nan nan nan
nan nan nan
nan nan nan
nan nan nan
nan nan nan
nan nan nan
nan nan nan
nan nan nan
nan nan nan
nan nan nan
nan nan nan
nan nan nan
nan nan nan
nan nan nan
nan nan nan
nan nan nan
nan nan nan
nan nan nan
nan nan nan
nan nan nan
nan nan nan
nan nan nan
nan nan nan
nan nan nan
nan nan nan
nan nan nan
nan nan nan
nan nan nan
nan nan nan
nan nan nan
nan nan nan
nan nan nan
nan nan nan
nan nan nan
nan nan nan
nan nan nan
nan nan nan
nan nan nan
nan nan nan
nan nan nan
nan nan nan
nan nan nan
nan nan nan
nan nan nan
nan nan nan
nan nan nan
nan nan nan
nan nan nan
nan nan nan
nan nan nan
nan nan nan
nan nan nan
nan nan nan
nan nan nan
nan nan nan
nan nan nan
nan nan nan
nan nan nan
nan nan nan
nan nan nan
nan nan nan
nan nan nan
nan nan nan
nan nan nan
nan nan nan
nan nan nan
nan nan nan
nan nan nan
nan nan nan
nan nan nan
nan nan nan
nan nan nan
nan nan nan
nan nan nan
nan nan nan
nan nan nan
nan nan nan
nan nan nan
nan nan nan
nan nan nan
nan nan nan
nan nan nan
nan nan nan
nan nan nan
nan nan nan
nan nan nan
nan nan nan
nan nan nan
nan nan nan
nan nan nan
nan nan nan
nan nan nan
nan nan nan
nan nan nan
nan nan nan
nan nan nan
nan nan nan
nan nan nan
nan nan nan
nan nan nan
nan nan nan
nan nan nan
nan nan nan
nan nan nan
nan nan nan
nan nan nan
nan nan nan
nan nan nan
nan nan nan
nan nan nan
nan nan nan
nan nan nan
nan nan nan
nan nan nan
nan nan nan
nan nan nan
nan nan nan
nan nan nan
nan nan nan
nan nan nan
nan nan nan
nan nan nan
nan nan nan
nan nan nan
nan nan nan
nan nan nan
nan nan nan
nan nan nan
nan nan nan
nan nan nan
nan nan nan
nan nan nan
nan nan nan
nan nan nan
nan nan nan
nan nan nan
nan nan nan
nan nan nan
nan nan nan
nan nan nan
nan nan nan
nan nan nan
nan nan nan
nan nan nan
nan nan nan
nan nan nan
nan nan nan
nan nan nan
nan nan nan
nan nan nan
nan nan nan
nan nan nan
nan nan nan
nan nan nan
nan nan nan
nan nan nan
nan nan nan
nan nan nan
nan nan nan
nan nan nan
nan nan nan
nan nan nan
nan nan nan
nan nan nan
nan nan nan
nan nan nan
nan nan nan
nan nan nan
nan nan nan
nan nan nan
nan nan nan
nan nan nan
nan nan nan
nan nan nan
nan nan nan
nan nan nan
nan nan nan
nan nan nan
nan nan nan
nan nan nan
nan nan nan
nan nan nan
nan nan nan
nan nan nan
nan nan nan
nan nan nan
nan nan nan
nan nan nan
nan nan nan
nan nan nan
nan nan nan
nan nan nan
nan nan nan
nan nan nan
nan nan nan
nan nan nan
nan nan nan
nan nan nan
nan nan nan
nan nan nan
nan nan nan
nan nan nan
nan nan nan
nan nan nan
nan nan nan
nan nan nan
nan nan nan
nan nan nan
nan nan nan
nan nan nan
nan nan nan
nan nan nan
nan nan nan
nan nan nan
nan nan nan
nan nan nan
nan nan nan
nan nan nan
nan nan nan
nan nan nan
nan nan nan
nan nan nan
nan nan nan
nan nan nan
nan nan nan
nan nan nan
nan nan nan
nan nan nan
nan nan nan
nan nan nan
nan nan nan
nan nan nan
nan nan nan
nan nan nan
nan nan nan
nan nan nan
nan nan nan
nan nan nan
nan nan nan
nan nan nan
nan nan nan
nan nan nan
nan nan nan
nan nan nan
nan nan nan
nan nan nan
nan nan nan
nan nan nan
nan nan nan
nan nan nan
nan nan nan
nan nan nan
nan nan nan
nan nan nan
nan nan nan
nan nan nan
nan nan nan
nan nan nan
nan nan nan
nan nan nan
nan nan nan
nan nan nan
nan nan nan
nan nan nan
nan nan nan
nan nan nan
nan nan nan
nan nan nan
nan nan nan
nan nan nan
nan nan nan
nan nan nan
nan nan nan
nan nan nan
nan nan nan
nan nan nan
nan nan nan
nan nan nan
nan nan nan
nan nan nan
nan nan nan
nan nan nan
nan nan nan
nan nan nan
nan nan nan
nan nan nan
nan nan nan
nan nan nan
nan nan nan
nan nan nan
nan nan nan
nan nan nan
nan nan nan
nan nan nan
nan nan nan
nan nan nan
nan nan nan
nan nan nan
nan nan nan
nan nan nan
nan nan nan
nan nan nan
nan nan nan
nan nan nan
nan nan nan
nan nan nan
nan nan nan
nan nan nan
nan nan nan
nan nan nan
nan nan nan
nan nan nan
nan nan nan
nan nan nan
nan nan nan
nan nan nan
nan nan nan
nan nan nan
nan nan nan
nan nan nan
nan nan nan
nan nan nan
nan nan nan
nan nan nan
nan nan nan
nan nan nan
nan nan nan
nan nan nan
nan nan nan
nan nan nan
nan nan nan
nan nan nan
nan nan nan
nan nan nan
nan nan nan
nan nan nan
nan nan nan
nan nan nan
nan nan nan
nan nan nan
nan nan nan
nan nan nan
nan nan nan
nan nan nan
nan nan nan
nan nan nan
nan nan nan
nan nan nan
nan nan nan
nan nan nan
nan nan nan
nan nan nan
nan nan nan
nan nan nan
nan nan nan
nan nan nan
nan nan nan
nan nan nan
nan nan nan
nan nan nan
nan nan nan
nan nan nan
nan nan nan
nan nan nan
nan nan nan
nan nan nan
nan nan nan
nan nan nan
nan nan nan
nan nan nan
nan nan nan
nan nan nan
nan nan nan
nan nan nan
nan nan nan
nan nan nan
nan nan nan
nan nan nan
nan nan nan
nan nan nan
nan nan nan
nan nan nan
nan nan nan
nan nan nan
nan nan nan
nan nan nan
nan nan nan
nan nan nan
nan nan nan
nan nan nan
nan nan nan
nan nan nan
nan nan nan
nan nan nan
nan nan nan
nan nan nan
nan nan nan
nan nan nan
nan nan nan
nan nan nan
nan nan nan
nan nan nan
nan nan nan
nan nan nan
nan nan nan
nan nan nan
nan nan nan
nan nan nan
nan nan nan
nan nan nan
nan nan nan
nan nan nan
nan nan nan
nan nan nan
nan nan nan
nan nan nan
nan nan nan
nan nan nan
nan nan nan
nan nan nan
nan nan nan
nan nan nan
nan nan nan
nan nan nan
nan nan nan
nan nan nan
nan nan nan
nan nan nan
nan nan nan
nan nan nan
nan nan nan
nan nan nan
nan nan nan
nan nan nan
nan nan nan
nan nan nan
nan nan nan
nan nan nan
nan nan nan
nan nan nan
nan nan nan
nan nan nan
nan nan nan
nan nan nan
nan nan nan
nan nan nan
nan nan nan
nan nan nan
nan nan nan
nan nan nan
nan nan nan
nan nan nan
nan nan nan
nan nan nan
nan nan nan
nan nan nan
nan nan nan
nan nan nan
nan nan nan
nan nan nan
nan nan nan
nan nan nan
nan nan nan
nan nan nan
nan nan nan
nan nan nan
nan nan nan
nan nan nan
nan nan nan
nan nan nan
nan nan nan
nan nan nan
nan nan nan
nan nan nan
nan nan nan
nan nan nan
nan nan nan
nan nan nan
nan nan nan
nan nan nan
nan nan nan
nan nan nan
nan nan nan
nan nan nan
nan nan nan
nan nan nan
nan nan nan
nan nan nan
nan nan nan
nan nan nan
nan nan nan
nan nan nan
nan nan nan
nan nan nan
nan nan nan
nan nan nan
nan nan nan
nan nan nan
nan nan nan
nan nan nan
nan nan nan
nan nan nan
nan nan nan
nan nan nan
nan nan nan
nan nan nan
nan nan nan
nan nan nan
nan nan nan
nan nan nan
nan nan nan
nan nan nan
nan nan nan
nan nan nan
nan nan nan
nan nan nan
nan nan nan
nan nan nan
nan nan nan
nan nan nan
nan nan nan
nan nan nan
nan nan nan
nan nan nan
nan nan nan
nan nan nan
nan nan nan
nan nan nan
nan nan nan
nan nan nan
nan nan nan
nan nan nan
nan nan nan
nan nan nan
nan nan nan
nan nan nan
nan nan nan
nan nan nan
nan nan nan
nan nan nan
nan nan nan
nan nan nan
nan nan nan
nan nan nan
nan nan nan
nan nan nan
nan nan nan
nan nan nan
nan nan nan
nan nan nan
nan nan nan
nan nan nan
nan nan nan
nan nan nan
nan nan nan
nan nan nan
nan nan nan
nan nan nan
nan nan nan
nan nan nan
nan nan nan
nan nan nan
nan nan nan
nan nan nan
nan nan nan
nan nan nan
nan nan nan
nan nan nan
nan nan nan
nan nan nan
nan nan nan
nan nan nan
nan nan nan
nan nan nan
nan nan nan
nan nan nan
nan nan nan
nan nan nan
nan nan nan
nan nan nan
nan nan nan
nan nan nan
nan nan nan
nan nan nan
nan nan nan
nan nan nan
nan nan nan
nan nan nan
nan nan nan
nan nan nan
nan nan nan
nan nan nan
nan nan nan
nan nan nan
nan nan nan
nan nan nan
nan nan nan
nan nan nan
nan nan nan
nan nan nan
nan nan nan
nan nan nan
nan nan nan
nan nan nan
nan nan nan
nan nan nan
nan nan nan
nan nan nan
nan nan nan
nan nan nan
nan nan nan
nan nan nan
nan nan nan
nan nan nan
nan nan nan
nan nan nan
nan nan nan
nan nan nan
nan nan nan
nan nan nan
nan nan nan
nan nan nan