# vtk DataFile Version 3.0
STAP++ Results
ASCII
DATASET UNSTRUCTURED_GRID
POINTS 4085 float
200 -10 0
200 10 0
150 10 0
150 -10 0
100 10 0
100 -10 0
50 10 0
50 -10 0
0 10 0
0 -10 0
-50 10 0
-50 -10 0
-100 10 0
-100 -10 0
-150 10 0
-150 -10 0
-200 10 0
-200 -10 0
-250 10 0
-250 -10 0
250 -10 0
250 10 0
200 -5 0
200 0 0
200 5 0
195 10 0
190 10 0
185 10 0
180 10 0
175 10 0
170 10 0
165 10 0
160 10 0
155 10 0
150 5 0
150 0 0
150 -5 0
155 -10 0
160 -10 0
165 -10 0
170 -10 0
175 -10 0
180 -10 0
185 -10 0
190 -10 0
195 -10 0
145 10 0
140 10 0
135 10 0
130 10 0
125 10 0
120 10 0
115 10 0
110 10 0
105 10 0
100 5 0
100 0 0
100 -5 0
105 -10 0
110 -10 0
115 -10 0
120 -10 0
125 -10 0
130 -10 0
135 -10 0
140 -10 0
145 -10 0
95 10 0
90 10 0
85 10 0
80 10 0
75 10 0
70 10 0
65 10 0
60 10 0
55 10 0
50 5 0
50 0 0
50 -5 0
55 -10 0
60 -10 0
65 -10 0
70 -10 0
75 -10 0
80 -10 0
85 -10 0
90 -10 0
95 -10 0
45 10 0
40 10 0
35 10 0
30 10 0
25 10 0
20 10 0
15 10 0
10 10 0
5 10 0
0 5 0
0 0 0
0 -5 0
5 -10 0
10 -10 0
15 -10 0
20 -10 0
25 -10 0
30 -10 0
35 -10 0
40 -10 0
45 -10 0
-5 10 0
-10 10 0
-15 10 0
-20 10 0
-25 10 0
-30 10 0
-35 10 0
-40 10 0
-45 10 0
-50 5 0
-50 0 0
-50 -5 0
-45 -10 0
-40 -10 0
-35 -10 0
-30 -10 0
-25 -10 0
-20 -10 0
-15 -10 0
-10 -10 0
-5 -10 0
-55 10 0
-60 10 0
-65 10 0
-70 10 0
-75 10 0
-80 10 0
-85 10 0
-90 10 0
-95 10 0
-100 5 0
-100 0 0
-100 -5 0
-95 -10 0
-90 -10 0
-85 -10 0
-80 -10 0
-75 -10 0
-70 -10 0
-65 -10 0
-60 -10 0
-55 -10 0
-105 10 0
-110 10 0
-115 10 0
-120 10 0
-125 10 0
-130 10 0
-135 10 0
-140 10 0
-145 10 0
-150 5 0
-150 0 0
-150 -5 0
-145 -10 0
-140 -10 0
-135 -10 0
-130 -10 0
-125 -10 0
-120 -10 0
-115 -10 0
-110 -10 0
-105 -10 0
-155 10 0
-160 10 0
-165 10 0
-170 10 0
-175 10 0
-180 10 0
-185 10 0
-190 10 0
-195 10 0
-200 5 0
-200 0 0
-200 -5 0
-195 -10 0
-190 -10 0
-185 -10 0
-180 -10 0
-175 -10 0
-170 -10 0
-165 -10 0
-160 -10 0
-155 -10 0
-205 10 0
-210 10 0
-215 10 0
-220 10 0
-225 10 0
-230 10 0
-235 10 0
-240 10 0
-245 10 0
-250 5 0
-250 0 0
-250 -5 0
-245 -10 0
-240 -10 0
-235 -10 0
-230 -10 0
-225 -10 0
-220 -10 0
-215 -10 0
-210 -10 0
-205 -10 0
205 -10 0
210 -10 0
215 -10 0
220 -10 0
225 -10 0
230 -10 0
235 -10 0
240 -10 0
245 -10 0
250 -5 0
250 0 0
250 5 0
245 10 0
240 10 0
235 10 0
230 10 0
225 10 0
220 10 0
215 10 0
210 10 0
205 10 0
195 -5 0
195 0 0
195 5 0
190 -5 0
190 0 0
190 5 0
185 -5 0
185 0 0
185 5 0
180 -5 0
180 0 0
180 5 0
175 -5 0
175 0 0
175 5 0
170 -5 0
170 0 0
170 5 0
165 -5 0
165 0 0
165 5 0
160 -5 0
160 0 0
160 5 0
155 -5 0
155 0 0
155 5 0
145 -5 0
145 0 0
145 5 0
140 -5 0
140 0 0
140 5 0
135 -5 0
135 0 0
135 5 0
130 -5 0
130 0 0
130 5 0
125 -5 0
125 0 0
125 5 0
120 -5 0
120 0 0
120 5 0
115 -5 0
115 0 0
115 5 0
110 -5 0
110 0 0
110 5 0
105 -5 0
105 0 0
105 5 0
95 -5 0
95 0 0
95 5 0
90 -5 0
90 0 0
90 5 0
85 -5 0
85 0 0
85 5 0
80 -5 0
80 0 0
80 5 0
75 -5 0
75 0 0
75 5 0
70 -5 0
70 0 0
70 5 0
65 -5 0
65 0 0
65 5 0
60 -5 0
60 0 0
60 5 0
55 -5 0
55 0 0
55 5 0
45 -5 0
45 0 0
45 5 0
40 -5 0
40 0 0
40 5 0
35 -5 0
35 0 0
35 5 0
30 -5 0
30 0 0
30 5 0
25 -5 0
25 0 0
25 5 0
20 -5 0
20 0 0
20 5 0
15 -5 0
15 0 0
15 5 0
10 -5 0
10 0 0
10 5 0
5 -5 0
5 0 0
5 5 0
-5 -5 0
-5 0 0
-5 5 0
-10 -5 0
-10 0 0
-10 5 0
-15 -5 0
-15 0 0
-15 5 0
-20 -5 0
-20 0 0
-20 5 0
-25 -5 0
-25 0 0
-25 5 0
-30 -5 0
-30 0 0
-30 5 0
-35 -5 0
-35 0 0
-35 5 0
-40 -5 0
-40 0 0
-40 5 0
-45 -5 0
-45 0 0
-45 5 0
-55 -5 0
-55 0 0
-55 5 0
-60 -5 0
-60 0 0
-60 5 0
-65 -5 0
-65 0 0
-65 5 0
-70 -5 0
-70 0 0
-70 5 0
-75 -5 0
-75 0 0
-75 5 0
-80 -5 0
-80 0 0
-80 5 0
-85 -5 0
-85 0 0
-85 5 0
-90 -5 0
-90 0 0
-90 5 0
-95 -5 0
-95 0 0
-95 5 0
-105 -5 0
-105 0 0
-105 5 0
-110 -5 0
-110 0 0
-110 5 0
-115 -5 0
-115 0 0
-115 5 0
-120 -5 0
-120 0 0
-120 5 0
-125 -5 0
-125 0 0
-125 5 0
-130 -5 0
-130 0 0
-130 5 0
-135 -5 0
-135 0 0
-135 5 0
-140 -5 0
-140 0 0
-140 5 0
-145 -5 0
-145 0 0
-145 5 0
-155 -5 0
-155 0 0
-155 5 0
-160 -5 0
-160 0 0
-160 5 0
-165 -5 0
-165 0 0
-165 5 0
-170 -5 0
-170 0 0
-170 5 0
-175 -5 0
-175 0 0
-175 5 0
-180 -5 0
-180 0 0
-180 5 0
-185 -5 0
-185 0 0
-185 5 0
-190 -5 0
-190 0 0
-190 5 0
-195 -5 0
-195 0 0
-195 5 0
-205 -5 0
-205 0 0
-205 5 0
-210 -5 0
-210 0 0
-210 5 0
-215 -5 0
-215 0 0
-215 5 0
-220 -5 0
-220 0 0
-220 5 0
-225 -5 0
-225 0 0
-225 5 0
-230 -5 0
-230 0 0
-230 5 0
-235 -5 0
-235 0 0
-235 5 0
-240 -5 0
-240 0 0
-240 5 0
-245 -5 0
-245 0 0
-245 5 0
205 5 0
205 0 0
205 -5 0
210 5 0
210 0 0
210 -5 0
215 5 0
215 0 0
215 -5 0
220 5 0
220 0 0
220 -5 0
225 5 0
225 0 0
225 -5 0
230 5 0
230 0 0
230 -5 0
235 5 0
235 0 0
235 -5 0
240 5 0
240 0 0
240 -5 0
245 5 0
245 0 0
245 -5 0
0 -10 -50
0 -20 -50
-20 -20 -50
-20 -10 -50
0 -20 150
-10 -20 150
-10 -10 150
0 -10 150
20 -10 -50
20 -20 -50
10 -10 150
10 -20 150
0 -15 -50
-6.66667 -20 -50
-13.3333 -20 -50
-20 -15 -50
-13.3333 -10 -50
-6.66667 -10 -50
0 -15 150
-6.66667 -20 150
-3.33333 -20 150
-10 -15 150
-3.33333 -10 150
-6.66667 -10 150
-19.75 -10 -45
-19.5 -10 -40
-19.25 -10 -35
-19 -10 -30
-18.75 -10 -25
-18.5 -10 -20
-18.25 -10 -15
-18 -10 -10
-17.75 -10 -5
-17.5 -10 0
-17.25 -10 5
-17 -10 10
-16.75 -10 15
-16.5 -10 20
-16.25 -10 25
-16 -10 30
-15.75 -10 35
-15.5 -10 40
-15.25 -10 45
-15 -10 50
-14.75 -10 55
-14.5 -10 60
-14.25 -10 65
-14 -10 70
-13.75 -10 75
-13.5 -10 80
-13.25 -10 85
-13 -10 90
-12.75 -10 95
-12.5 -10 100
-12.25 -10 105
-12 -10 110
-11.75 -10 115
-11.5 -10 120
-11.25 -10 125
-11 -10 130
-10.75 -10 135
-10.5 -10 140
-10.25 -10 145
0 -10 145
0 -10 140
0 -10 135
0 -10 130
0 -10 125
0 -10 120
0 -10 115
0 -10 110
0 -10 105
0 -10 100
0 -10 95
0 -10 90
0 -10 85
0 -10 80
0 -10 75
0 -10 70
0 -10 65
0 -10 60
0 -10 55
0 -10 50
0 -10 45
0 -10 40
0 -10 35
0 -10 30
0 -10 25
0 -10 20
0 -10 15
0 -10 10
0 -10 5
0 -10 -5
0 -10 -10
0 -10 -15
0 -10 -20
0 -10 -25
0 -10 -30
0 -10 -35
0 -10 -40
0 -10 -45
-10.25 -20 145
-10.5 -20 140
-10.75 -20 135
-11 -20 130
-11.25 -20 125
-11.5 -20 120
-11.75 -20 115
-12 -20 110
-12.25 -20 105
-12.5 -20 100
-12.75 -20 95
-13 -20 90
-13.25 -20 85
-13.5 -20 80
-13.75 -20 75
-14 -20 70
-14.25 -20 65
-14.5 -20 60
-14.75 -20 55
-15 -20 50
-15.25 -20 45
-15.5 -20 40
-15.75 -20 35
-16 -20 30
-16.25 -20 25
-16.5 -20 20
-16.75 -20 15
-17 -20 10
-17.25 -20 5
-17.5 -20 0
-17.75 -20 -5
-18 -20 -10
-18.25 -20 -15
-18.5 -20 -20
-18.75 -20 -25
-19 -20 -30
-19.25 -20 -35
-19.5 -20 -40
-19.75 -20 -45
0 -20 -45
0 -20 -40
0 -20 -35
0 -20 -30
0 -20 -25
0 -20 -20
0 -20 -15
0 -20 -10
0 -20 -5
0 -20 0
0 -20 5
0 -20 10
0 -20 15
0 -20 20
0 -20 25
0 -20 30
0 -20 35
0 -20 40
0 -20 45
0 -20 50
0 -20 55
0 -20 60
0 -20 65
0 -20 70
0 -20 75
0 -20 80
0 -20 85
0 -20 90
0 -20 95
0 -20 100
0 -20 105
0 -20 110
0 -20 115
0 -20 120
0 -20 125
0 -20 130
0 -20 135
0 -20 140
0 -20 145
6.66667 -10 -50
13.3333 -10 -50
20 -15 -50
13.3333 -20 -50
6.66667 -20 -50
6.66667 -10 150
3.33333 -10 150
10 -15 150
3.33333 -20 150
6.66667 -20 150
19.75 -20 -45
19.5 -20 -40
19.25 -20 -35
19 -20 -30
18.75 -20 -25
18.5 -20 -20
18.25 -20 -15
18 -20 -10
17.75 -20 -5
17.5 -20 0
17.25 -20 5
17 -20 10
16.75 -20 15
16.5 -20 20
16.25 -20 25
16 -20 30
15.75 -20 35
15.5 -20 40
15.25 -20 45
15 -20 50
14.75 -20 55
14.5 -20 60
14.25 -20 65
14 -20 70
13.75 -20 75
13.5 -20 80
13.25 -20 85
13 -20 90
12.75 -20 95
12.5 -20 100
12.25 -20 105
12 -20 110
11.75 -20 115
11.5 -20 120
11.25 -20 125
11 -20 130
10.75 -20 135
10.5 -20 140
10.25 -20 145
10.25 -10 145
10.5 -10 140
10.75 -10 135
11 -10 130
11.25 -10 125
11.5 -10 120
11.75 -10 115
12 -10 110
12.25 -10 105
12.5 -10 100
12.75 -10 95
13 -10 90
13.25 -10 85
13.5 -10 80
13.75 -10 75
14 -10 70
14.25 -10 65
14.5 -10 60
14.75 -10 55
15 -10 50
15.25 -10 45
15.5 -10 40
15.75 -10 35
16 -10 30
16.25 -10 25
16.5 -10 20
16.75 -10 15
17 -10 10
17.25 -10 5
17.5 -10 0
17.75 -10 -5
18 -10 -10
18.25 -10 -15
18.5 -10 -20
18.75 -10 -25
19 -10 -30
19.25 -10 -35
19.5 -10 -40
19.75 -10 -45
-6.66667 -15 -50
-13.3333 -15 -50
-3.33333 -15 150
-6.66667 -15 150
-6.58333 -10 -45
-13.1667 -10 -45
-6.5 -10 -40
-13 -10 -40
-6.41667 -10 -35
-12.8333 -10 -35
-6.33333 -10 -30
-12.6667 -10 -30
-6.25 -10 -25
-12.5 -10 -25
-6.16667 -10 -20
-12.3333 -10 -20
-6.08333 -10 -15
-12.1667 -10 -15
-6 -10 -10
-12 -10 -10
-5.91667 -10 -5
-11.8333 -10 -5
-5.83333 -10 0
-11.6667 -10 0
-5.75 -10 5
-11.5 -10 5
-5.66667 -10 10
-11.3333 -10 10
-5.58333 -10 15
-11.1667 -10 15
-5.5 -10 20
-11 -10 20
-5.41667 -10 25
-10.8333 -10 25
-5.33333 -10 30
-10.6667 -10 30
-5.25 -10 35
-10.5 -10 35
-5.16667 -10 40
-10.3333 -10 40
-5.08333 -10 45
-10.1667 -10 45
-5 -10 50
-10 -10 50
-4.91667 -10 55
-9.83333 -10 55
-4.83333 -10 60
-9.66667 -10 60
-4.75 -10 65
-9.5 -10 65
-4.66667 -10 70
-9.33333 -10 70
-4.58333 -10 75
-9.16667 -10 75
-4.5 -10 80
-9 -10 80
-4.41667 -10 85
-8.83333 -10 85
-4.33333 -10 90
-8.66667 -10 90
-4.25 -10 95
-8.5 -10 95
-4.16667 -10 100
-8.33333 -10 100
-4.08333 -10 105
-8.16667 -10 105
-4 -10 110
-8 -10 110
-3.91667 -10 115
-7.83333 -10 115
-3.83333 -10 120
-7.66667 -10 120
-3.75 -10 125
-7.5 -10 125
-3.66667 -10 130
-7.33333 -10 130
-3.58333 -10 135
-7.16667 -10 135
-3.5 -10 140
-7 -10 140
-3.41667 -10 145
-6.83333 -10 145
-6.58333 -20 -45
-13.1667 -20 -45
-6.5 -20 -40
-13 -20 -40
-6.41667 -20 -35
-12.8333 -20 -35
-6.33333 -20 -30
-12.6667 -20 -30
-6.25 -20 -25
-12.5 -20 -25
-6.16667 -20 -20
-12.3333 -20 -20
-6.08333 -20 -15
-12.1667 -20 -15
-6 -20 -10
-12 -20 -10
-5.91667 -20 -5
-11.8333 -20 -5
-5.83333 -20 0
-11.6667 -20 0
-5.75 -20 5
-11.5 -20 5
-5.66667 -20 10
-11.3333 -20 10
-5.58333 -20 15
-11.1667 -20 15
-5.5 -20 20
-11 -20 20
-5.41667 -20 25
-10.8333 -20 25
-5.33333 -20 30
-10.6667 -20 30
-5.25 -20 35
-10.5 -20 35
-5.16667 -20 40
-10.3333 -20 40
-5.08333 -20 45
-10.1667 -20 45
-5 -20 50
-10 -20 50
-4.91667 -20 55
-9.83333 -20 55
-4.83333 -20 60
-9.66667 -20 60
-4.75 -20 65
-9.5 -20 65
-4.66667 -20 70
-9.33333 -20 70
-4.58333 -20 75
-9.16667 -20 75
-4.5 -20 80
-9 -20 80
-4.41667 -20 85
-8.83333 -20 85
-4.33333 -20 90
-8.66667 -20 90
-4.25 -20 95
-8.5 -20 95
-4.16667 -20 100
-8.33333 -20 100
-4.08333 -20 105
-8.16667 -20 105
-4 -20 110
-8 -20 110
-3.91667 -20 115
[...]
POINT_DATA 4085
VECTORS Displacement float
-0.603427 -0.0189649 -1.04351
-0.619105 0.0279767 -1.08566
-1.23289 0.0755304 -2.04284
-1.3552 -0.0687378 -1.95349
0.498405 0.123752 -1.11786
0.489525 -0.11931 -1.01976
0.556614 0.149918 -0.274772
0.625746 -0.14776 -0.153231
0.0509533 0.111838 -0.124182
-0.0509811 -0.111769 -0.124198
-0.625976 0.147643 -0.153155
-0.557577 -0.149972 -0.274494
-0.489576 0.118958 -1.01967
-0.498909 -0.123972 -1.11805
1.3547 0.0681278 -1.95319
1.23249 -0.0759357 -2.04288
0.603559 0.0181098 -1.04268
0.618637 -0.028559 -1.08549
0.0104049 -0.0220286 -0.0518334
0.00389884 -0.0217103 -0.0608021
-0.00841269 0.0198812 -0.0546414
-0.0145638 0.0222745 -0.066983
0 0 -1.2441
0 0 -1.14053
0 0 -1.26965
0 0 -1.32423
0 0 -1.35772
0 0 -1.76764
0 0 -1.79942
0 0 -2.17201
0 0 -2.07785
0 0 -2.34327
0 0 -2.10968
0 0 -2.30754
0 0 -2.30029
0 0 -2.0426
0 0 -2.24586
0 0 -2.21572
0 0 -2.01855
0 0 -2.25826
0 0 -1.9983
0 0 -2.09887
0 0 -1.73214
0 0 -1.70677
0 0 -1.30253
0 0 -1.27657
0 0 -2.33185
0 0 -2.13412
0 0 -2.43852
0 0 -2.1405
0 0 -2.33671
0 0 -1.8891
0 0 -1.9807
0 0 -1.44314
0 0 -1.54194
0 0 -1.45592
0 0 -1.13135
0 0 -1.39601
0 0 -1.43889
0 0 -1.33614
0 0 -1.8751
0 0 -1.78384
0 0 -2.2329
0 0 -2.03732
0 0 -2.33705
0 0 -2.03331
0 0 -2.23666
0 0 -1.43636
0 0 -1.13344
0 0 -1.48725
0 0 -1.12703
0 0 -1.3961
0 0 -0.915049
0 0 -1.09063
0 0 -0.536859
0 0 -0.719195
0 0 -0.653381
0 0 -0.279752
0 0 -0.57943
0 0 -0.591105
0 0 -0.404662
0 0 -0.961939
0 0 -0.788727
0 0 -1.27357
0 0 -1.00735
0 0 -1.3716
0 0 -1.02053
0 0 -1.33124
0 0 -0.664706
0 0 -0.376438
0 0 -0.832596
0 0 -0.515657
0 0 -0.896816
0 0 -0.472578
0 0 -0.75365
0 0 -0.255312
0 0 -0.528176
0 0 -0.487562
0 0 -0.134128
0 0 -0.487577
0 0 -0.528079
0 0 -0.241871
0 0 -0.724714
0 0 -0.426617
0 0 -0.833957
0 0 -0.435301
0 0 -0.735968
0 0 -0.263128
0 0 -0.543199
0 0 -0.527921
0 0 -0.241872
0 0 -0.724202
0 0 -0.426578
0 0 -0.833061
0 0 -0.435208
0 0 -0.734695
0 0 -0.263011
0 0 -0.541593
0 0 -0.577656
0 0 -0.279578
0 0 -0.651484
0 0 -0.662897
0 0 -0.376134
0 0 -0.831168
0 0 -0.515441
0 0 -0.89583
0 0 -0.472483
0 0 -0.753114
0 0 -0.255321
0 0 -0.528046
0 0 -0.58924
0 0 -0.404623
0 0 -0.959729
0 0 -0.788656
0 0 -1.27099
0 0 -1.00723
0 0 -1.36865
0 0 -1.02038
0 0 -1.32795
0 0 -1.39264
0 0 -1.13139
0 0 -1.45273
0 0 -1.43334
0 0 -1.13354
0 0 -1.48447
0 0 -1.12703
0 0 -1.39356
0 0 -0.914958
0 0 -1.08833
0 0 -0.536675
0 0 -0.717142
0 0 -1.43533
0 0 -1.33606
0 0 -1.87118
0 0 -1.7837
0 0 -2.22857
0 0 -2.03709
0 0 -2.3323
0 0 -2.03299
0 0 -2.23153
0 0 -2.24062
0 0 -2.04243
0 0 -2.29526
0 0 -2.32707
0 0 -2.13419
0 0 -2.43414
0 0 -2.14063
0 0 -2.33274
0 0 -1.88931
0 0 -1.97712
0 0 -1.44339
0 0 -1.5387
0 0 -2.21026
0 0 -2.01811
0 0 -2.25225
0 0 -1.99759
0 0 -2.09229
0 0 -1.73118
0 0 -1.69976
0 0 -1.30153
0 0 -1.26942
0 0 -1.23662
0 0 -1.13936
0 0 -1.26219
0 0 -1.31728
0 0 -1.35689
0 0 -1.76075
0 0 -1.79867
0 0 -2.16564
0 0 -2.0774
0 0 -2.33754
0 0 -2.10957
0 0 -2.30242
0 0 -1.2206
0 0 -1.21828
0 0 -1.46209
0 0 -1.44877
0 0 -1.54156
0 0 -1.37357
0 0 -1.22858
0 0 -0.875805
0 0 -0.515212
0.00989856 -0.0210066 -0.0560449
0.00865146 -0.0205635 -0.0563811
-0.00203453 -0.0229103 -0.0601953
0 0 -0.508686
0 0 -0.864887
0 0 -1.2243
0 0 -1.37634
0 0 -1.55273
0 0 -1.46828
0 0 -1.48976
0 0 -1.25411
0 0 -1.2618
0 0 -1.2282
0 0 -1.22044
0 0 -1.47133
0 0 -1.45301
0 0 -1.55256
0 0 -1.38058
0 0 -1.24124
0 0 -0.887028
0 0 -0.52603
-0.0113172 0.0207025 -0.0591697
-0.0140458 0.0218739 -0.060639
-0.0154839 0.0227256 -0.0643628
0 0 -0.526746
0 0 -0.867882
0 0 -1.23267
0 0 -1.37704
0 0 -1.55987
0 0 -1.46848
0 0 -1.49664
0 0 -1.25431
0 0 -1.26853
0 0 -1.17795
0 0 -1.36757
0 0 -1.20399
0 0 -1.51448
0 0 -1.36578
0 0 -1.54189
0 0 -1.54499
0 0 -1.74597
0 0 -1.57563
0 0 -1.93369
0 0 -1.75626
0 0 -1.96719
0 0 -1.89875
0 0 -2.11573
0 0 -1.93549
0 0 -2.21394
0 0 -2.0168
0 0 -2.25351
0 0 -2.04531
0 0 -2.28641
0 0 -2.08817
0 0 -2.27381
0 0 -2.06606
0 0 -2.31901
0 0 -2.01506
0 0 -2.28736
0 0 -2.06498
0 0 -2.02273
0 0 -2.31452
0 0 -2.07467
0 0 -2.32681
0 0 -2.08758
0 0 -2.37682
0 0 -2.07671
0 0 -2.3736
0 0 -2.12785
0 0 -2.32662
0 0 -2.06625
0 0 -2.37795
0 0 -1.95236
0 0 -2.26237
0 0 -2.0045
0 0 -2.09521
0 0 -1.82307
0 0 -2.14758
0 0 -1.60043
0 0 -1.9321
0 0 -1.65365
0 0 -1.69541
0 0 -1.4208
0 0 -1.74849
0 0 -1.19628
0 0 -1.55673
0 0 -1.25235
0 0 -1.04864
0 0 -1.41003
0 0 -1.10595
0 0 -1.38751
0 0 -1.08532
0 0 -1.44354
0 0 -1.05564
0 0 -1.42139
0 0 -1.11392
0 0 -1.36647
0 0 -1.05059
0 0 -1.42603
0 0 -0.943313
0 0 -1.31737
0 0 -1.00485
0 0 -1.1632
0 0 -0.841885
0 0 -1.22605
0 0 -0.641745
0 0 -1.03178
0 0 -0.70662
0 0 -0.818633
0 0 -0.500465
0 0 -0.884169
0 0 -0.303216
0 0 -0.71488
0 0 -0.373246
0 0 -0.234175
0 0 -0.64399
0 0 -0.300237
0 0 -0.674835
0 0 -0.337587
0 0 -0.730986
0 0 -0.385373
0 0 -0.78238
0 0 -0.434133
0 0 -0.818147
0 0 -0.461696
0 0 -0.858091
0 0 -0.459862
0 0 -0.846953
0 0 -0.491453
0 0 -0.802046
0 0 -0.433871
0 0 -0.824914
0 0 -0.34851
0 0 -0.731794
0 0 -0.363124
0 0 -0.627061
0 0 -0.253596
0 0 -0.633681
0 0 -0.160922
0 0 -0.537779
0 0 -0.162521
0 0 -0.162538
0 0 -0.537615
0 0 -0.160919
0 0 -0.633347
0 0 -0.253589
0 0 -0.626724
0 0 -0.363087
0 0 -0.731263
0 0 -0.348484
0 0 -0.824167
0 0 -0.433801
0 0 -0.801327
0 0 -0.49132
0 0 -0.846013
0 0 -0.459773
0 0 -0.856914
0 0 -0.461547
0 0 -0.817032
0 0 -0.433911
0 0 -0.781038
0 0 -0.38523
0 0 -0.729411
0 0 -0.33739
0 0 -0.673353
0 0 -0.299983
0 0 -0.642303
0 0 -0.234032
0 0 -0.373052
0 0 -0.712908
0 0 -0.303125
0 0 -0.882025
0 0 -0.500347
0 0 -0.81656
0 0 -0.706502
0 0 -1.02952
0 0 -0.641669
0 0 -1.22364
0 0 -0.841802
0 0 -1.1608
0 0 -1.0048
0 0 -1.31481
0 0 -0.943232
0 0 -1.42334
0 0 -1.05053
0 0 -1.36373
0 0 -1.11392
0 0 -1.41852
0 0 -1.05555
0 0 -1.44059
0 0 -1.0853
0 0 -1.38445
0 0 -1.10604
0 0 -1.40689
0 0 -1.04858
0 0 -1.2525
0 0 -1.55331
0 0 -1.19627
0 0 -1.745
0 0 -1.42087
0 0 -1.69175
0 0 -1.6538
0 0 -1.92834
0 0 -1.6004
0 0 -2.14372
0 0 -1.8231
0 0 -2.09117
0 0 -2.00459
0 0 -2.25822
0 0 -1.95227
0 0 -2.37368
0 0 -2.06621
0 0 -2.32217
0 0 -2.12785
0 0 -2.36903
0 0 -2.07653
0 0 -2.37215
0 0 -2.08746
0 0 -2.32196
0 0 -2.07462
0 0 -2.30957
0 0 -2.02248
0 0 -2.06486
0 0 -2.282
0 0 -2.01476
0 0 -2.3135
0 0 -2.06574
0 0 -2.26814
0 0 -2.08781
0 0 -2.28052
0 0 -2.0448
0 0 -2.24739
0 0 -2.01621
0 0 -2.20769
0 0 -1.93481
0 0 -2.10925
0 0 -1.89796
0 0 -1.96047
0 0 -1.75539
0 0 -1.9269
0 0 -1.57471
0 0 -1.73897
0 0 -1.54398
0 0 -1.53475
0 0 -1.36471
0 0 -1.50729
0 0 -1.203
0 0 -1.36015
0 0 -1.17688
0 0 -1.15816
0 0 -1.28859
0 0 -1.13611
0 0 -1.3761
0 0 -1.25313
0 0 -1.35835
0 0 -1.36735
0 0 -1.46451
0 0 -1.35339
0 0 -1.53164
0 0 -1.42667
0 0 -1.52191
0 0 -1.43588
0 0 -1.50242
0 0 -1.43035
0 0 -1.40396
0 0 -1.32538
0 0 -1.40238
0 0 -1.13647
0 0 -1.1794
0 0 -1.13901
0 0 -0.878375
0 0 -0.833005
0 0 -0.882944
0 0 -0.465671
0 0 -0.486978
0 0 -0.472801
0 0 -1.15902
0 0 -1.29627
0 0 -1.13748
0 0 -1.38348
0 0 -1.25454
0 0 -1.36647
0 0 -1.36829
0 0 -1.47256
0 0 -1.35585
0 0 -1.53928
0 0 -1.42878
0 0 -1.53107
0 0 -1.43721
0 0 -1.51096
0 0 -1.43435
0 0 -1.41183
0 0 -1.32828
0 0 -1.41231
0 0 -1.13807
0 0 -1.18748
0 0 -1.14466
0 0 -0.886015
0 0 -0.835308
0 0 -0.891713
0 0 -0.463942
0 0 -0.489711
0 0 -0.480734
0 0 0
0 0 0
0 0 0
0 0 0
-0.110744 -0.589799 -0.518598
-0.110406 -0.595633 -0.518488
-0.116277 -0.595372 -0.498329
-0.11541 -0.587828 -0.503944
0 0 0
0 0 0
-0.115981 -0.584594 -0.495968
-0.11106 -0.584867 -0.516385
0 0 0
0 0 0
0 0 0
0 0 0
0 0 0
0 0 0
-0.11355 -0.589257 -0.508171
-0.110401 -0.593602 -0.518689
-0.110577 -0.591615 -0.51858
-0.11329 -0.595504 -0.508558
-0.115894 -0.590764 -0.499319
-0.116131 -0.593261 -0.49882
-0.0120863 0.00519388 -0.0166038
-0.018567 -0.000175188 -0.0308031
-0.0241443 -0.00791933 -0.0448011
-0.0290333 -0.0180841 -0.0586577
-0.034021 -0.0307236 -0.0726533
-0.0393669 -0.045701 -0.0865841
-0.0450583 -0.0627761 -0.100567
-0.0510803 -0.0816663 -0.114661
-0.0573556 -0.101911 -0.129003
-0.0639042 -0.123195 -0.143679
-0.070283 -0.144651 -0.158497
-0.076097 -0.16601 -0.17358
-0.0809781 -0.186749 -0.188869
-0.0850655 -0.20686 -0.204526
-0.0887114 -0.22646 -0.220398
-0.092048 -0.245627 -0.236352
-0.0951359 -0.264406 -0.252298
-0.098004 -0.282825 -0.268172
-0.100665 -0.300897 -0.28392
-0.103124 -0.318629 -0.299494
-0.105385 -0.336024 -0.314849
-0.107451 -0.353078 -0.32994
-0.109324 -0.369789 -0.344722
-0.111006 -0.386152 -0.359148
-0.112501 -0.402163 -0.37317
-0.113812 -0.417813 -0.386742
-0.114943 -0.433099 -0.399813
-0.115898 -0.448011 -0.412333
-0.116682 -0.462544 -0.42425
-0.117299 -0.47669 -0.435512
-0.117758 -0.490441 -0.446064
-0.118064 -0.503789 -0.455851
-0.118227 -0.516726 -0.464816
-0.118257 -0.529242 -0.472901
-0.118166 -0.54133 -0.480047
-0.117974 -0.552981 -0.486187
-0.117713 -0.564194 -0.491246
-0.11739 -0.574965 -0.495061
-0.116917 -0.585326 -0.497447
-0.115766 -0.579432 -0.498437
-0.115277 -0.568649 -0.495198
-0.11484 -0.557555 -0.491211
-0.114327 -0.545992 -0.486085
-0.113734 -0.533983 -0.479873
-0.113044 -0.521535 -0.472618
-0.112245 -0.508656 -0.464383
-0.111326 -0.495355 -0.455227
-0.110281 -0.481641 -0.445212
-0.109101 -0.467523 -0.434396
-0.107782 -0.453008 -0.422837
-0.106317 -0.438104 -0.410588
-0.104702 -0.422818 -0.397706
-0.102936 -0.407159 -0.384241
-0.101014 -0.391132 -0.370247
-0.0989342 -0.374745 -0.355772
-0.096696 -0.358006 -0.340867
-0.0942975 -0.34092 -0.32558
-0.091738 -0.323495 -0.309959
-0.0890169 -0.30574 -0.294052
-0.0861335 -0.287663 -0.277905
-0.0830873 -0.269277 -0.261561
-0.0798768 -0.250597 -0.245062
-0.0764989 -0.231644 -0.228447
-0.072947 -0.212449 -0.211751
-0.0692002 -0.193055 -0.195001
-0.0652625 -0.173513 -0.17819
-0.0609697 -0.153843 -0.16123
-0.0575724 -0.134249 -0.142925
-0.0429202 -0.0936976 -0.113845
-0.0373635 -0.0748911 -0.101786
-0.030692 -0.0578046 -0.089071
-0.0243317 -0.0420946 -0.0760973
-0.0183951 -0.0286424 -0.0641968
-0.0129204 -0.0177554 -0.0556222
-0.00834249 -0.00886333 -0.0376374
-0.00450541 -0.0015778 -0.0232922
-0.00168434 0.00341565 -0.0110029
-0.110733 -0.586132 -0.517814
-0.111039 -0.576601 -0.516009
-0.111215 -0.566595 -0.51306
-0.111317 -0.556074 -0.508947
-0.111342 -0.545055 -0.503734
-0.11127 -0.533558 -0.497494
-0.111083 -0.521595 -0.490295
-0.110768 -0.509176 -0.482198
-0.110313 -0.496312 -0.473262
-0.109711 -0.483011 -0.463542
-0.108952 -0.469283 -0.453097
-0.108032 -0.455135 -0.44198
-0.106944 -0.440576 -0.430245
-0.105684 -0.425614 -0.417944
-0.104247 -0.410257 -0.405129
-0.10263 -0.394511 -0.391848
-0.10083 -0.378383 -0.378151
-0.0988457 -0.361879 -0.364087
-0.0966764 -0.345004 -0.349702
-0.0943234 -0.327762 -0.335042
-0.0917909 -0.310153 -0.320156
-0.089087 -0.292175 -0.305091
-0.0862246 -0.273818 -0.289903
-0.0832212 -0.25506 -0.274653
-0.0800927 -0.235864 -0.259422
-0.0768388 -0.216171 -0.244302
-0.0733887 -0.195918 -0.229383
-0.069563 -0.175113 -0.214664
-0.0651001 -0.153787 -0.199968
-0.0599527 -0.132417 -0.18479
-0.0545363 -0.111304 -0.16888
-0.0492337 -0.0911672 -0.152252
-0.0442092 -0.07241 -0.134961
-0.0395372 -0.0554452 -0.1171
-0.0352098 -0.0405612 -0.098784
-0.0311177 -0.0279827 -0.0801311
-0.026882 -0.0179539 -0.0612073
-0.0215849 -0.0109416 -0.0418885
-0.014802 -0.00785338 -0.0220162
-0.00115909 -0.00819004 -0.0165491
-0.00347898 -0.0123086 -0.0338117
-0.00666519 -0.0186392 -0.051376
-0.0105723 -0.0270795 -0.069272
-0.0150947 -0.0377935 -0.086772
-0.0201325 -0.0509953 -0.104272
-0.0255931 -0.0666001 -0.121159
-0.0313386 -0.0839305 -0.137599
-0.0379699 -0.1031 -0.153986
-0.0423522 -0.123598 -0.169835
-0.048882 -0.144093 -0.185653
-0.0525454 -0.164003 -0.201377
-0.0566492 -0.183485 -0.217689
-0.0605467 -0.202954 -0.2341
-0.0643093 -0.22231 -0.250419
-0.0679185 -0.241464 -0.266614
-0.0713767 -0.260361 -0.282665
-0.0746815 -0.278962 -0.298555
-0.0778307 -0.297243 -0.314259
-0.0808229 -0.315188 -0.329742
-0.0836571 -0.332783 -0.344965
-0.0863331 -0.350019 -0.359885
-0.0888511 -0.366888 -0.374457
-0.091212 -0.383382 -0.388633
-0.0934169 -0.399493 -0.402364
-0.0954675 -0.415214 -0.415601
-0.0973659 -0.430537 -0.428293
-0.0991151 -0.445455 -0.440388
-0.100719 -0.459958 -0.451832
-0.10218 -0.47404 -0.462573
-0.103506 -0.487692 -0.472552
-0.104701 -0.500903 -0.481714
-0.105773 -0.513666 -0.489998
-0.10673 -0.525969 -0.497343
-0.107582 -0.537803 -0.503688
-0.10834 -0.549158 -0.508972
-0.109018 -0.560025 -0.51314
-0.109626 -0.570416 -0.51612
-0.110216 -0.580106 -0.517766
0 0 0
0 0 0
0 0 0
0 0 0
0 0 0
-0.116074 -0.5861 -0.497175
-0.115982 -0.58721 -0.498487
-0.113582 -0.584739 -0.506332
-0.110961 -0.588031 -0.517877
-0.111082 -0.58646 -0.517298
0.0094582 -0.0041184 -0.0138612
0.0114049 -0.00565951 -0.0268557
0.0104938 -0.0103021 -0.0402658
0.00736452 -0.0175634 -0.0542292
0.00293344 -0.0271876 -0.0688386
-0.00227901 -0.0390366 -0.0840271
-0.00800157 -0.0529691 -0.0997305
-0.0140326 -0.0687902 -0.115971
-0.0200923 -0.0862486 -0.132888
-0.0258025 -0.105151 -0.150384
-0.0306993 -0.125477 -0.167993
-0.0351533 -0.146304 -0.185235
-0.0394664 -0.167164 -0.202045
-0.0437807 -0.187764 -0.218716
-0.0480233 -0.208004 -0.235382
-0.05212 -0.227849 -0.25206
-0.0560482 -0.247308 -0.268693
-0.0598123 -0.266391 -0.285221
-0.063423 -0.285106 -0.301587
-0.0668903 -0.303455 -0.317739
-0.070221 -0.321437 -0.333629
-0.0734191 -0.339049 -0.34921
-0.0764869 -0.356286 -0.364434
-0.0794252 -0.373143 -0.379252
-0.0822348 -0.389613 -0.393614
-0.0849163 -0.405689 -0.407469
-0.0874709 -0.421365 -0.420766
-0.0899001 -0.436631 -0.43345
-0.092206 -0.451481 -0.445466
-0.0943917 -0.465906 -0.456759
-0.0964608 -0.479896 -0.467271
-0.0984182 -0.493445 -0.476941
-0.10027 -0.50654 -0.485709
-0.102021 -0.519173 -0.493513
-0.103679 -0.531333 -0.500286
-0.105248 -0.543006 -0.505955
-0.106733 -0.554169 -0.510438
-0.108164 -0.564792 -0.513656
-0.109634 -0.574895 -0.515625
-0.11441 -0.574043 -0.494996
-0.113104 -0.563049 -0.492407
-0.11188 -0.551602 -0.488278
-0.110576 -0.5397 -0.482824
-0.109173 -0.527354 -0.476216
-0.107678 -0.514566 -0.468529
-0.106086 -0.501345 -0.459833
-0.10439 -0.4877 -0.450191
-0.102584 -0.473639 -0.439665
-0.100662 -0.459172 -0.428316
-0.0986199 -0.444305 -0.416203
-0.0964542 -0.429048 -0.403382
-0.094162 -0.413407 -0.389909
-0.0917413 -0.39739 -0.375839
-0.0891912 -0.381003 -0.361224
-0.0865109 -0.364254 -0.346116
-0.0837006 -0.347147 -0.330567
-0.0807609 -0.32969 -0.314624
-0.0776929 -0.311886 -0.298338
-0.0744979 -0.293741 -0.281755
-0.0711776 -0.275259 -0.264924
-0.0677345 -0.256441 -0.247893
-0.0641737 -0.237288 -0.230716
-0.0605078 -0.2178 -0.213456
-0.0567649 -0.197969 -0.196187
-0.0530131 -0.177783 -0.179008
-0.0493414 -0.157217 -0.16203
-0.0460762 -0.136293 -0.145429
-0.0426487 -0.115345 -0.12866
-0.0377675 -0.0955557 -0.11247
-0.0317665 -0.0768449 -0.0971735
-0.0246257 -0.0599778 -0.0830087
-0.0173947 -0.044727 -0.0703175
-0.0107175 -0.0312395 -0.058538
-0.00463151 -0.0197871 -0.047602
0.000693986 -0.010563 -0.0373579
0.00482053 -0.00361784 -0.0279429
0.00690709 0.00117772 -0.0189955
0.0064735 0.00400727 -0.0102937
0 0 0
0 0 0
-0.113193 -0.591157 -0.509164
-0.113199 -0.593413 -0.508873
-0.00401797 0.00362113 -0.0116484
-0.00678435 0.00383225 -0.0124948
-0.00863082 -0.00163001 -0.0244896
-0.0134125 -0.00121833 -0.0265196
-0.0137232 -0.0091714 -0.0385522
-0.0186646 -0.00891455 -0.0408823
-0.0182569 -0.0186318 -0.0517029
-0.0236734 -0.0188308 -0.0551846
-0.0231597 -0.0302658 -0.0662037
-0.028788 -0.0310294 -0.0689353
-0.0291964 -0.0441845 -0.0794715
-0.0341991 -0.0454409 -0.0827129
-0.0352868 -0.0601723 -0.0925786
-0.0400565 -0.0619531 -0.0963294
-0.0414467 -0.0780697 -0.10573
-0.0460606 -0.0803124 -0.11002
-0.0468797 -0.0978083 -0.119219
-0.0521634 -0.100206 -0.12419
-0.0523672 -0.120396 -0.134742
-0.0585507 -0.120564 -0.138995
-0.0616194 -0.137791 -0.149445
-0.0652847 -0.14168 -0.154417
-0.0661454 -0.158336 -0.16559
-0.0711092 -0.162187 -0.169825
-0.0704647 -0.178154 -0.182281
-0.0757372 -0.182451 -0.185827
-0.0745105 -0.197765 -0.198868
-0.0798109 -0.202298 -0.20204
-0.0782426 -0.217143 -0.215403
-0.0835053 -0.221776 -0.218285
-0.0817322 -0.236274 -0.23188
-0.0869187 -0.240914 -0.234516
-0.0850151 -0.255134 -0.248277
-0.0901042 -0.259726 -0.250694
-0.088111 -0.273707 -0.264563
-0.0930858 -0.278216 -0.266775
-0.0910277 -0.291977 -0.280701
-0.0958741 -0.296385 -0.282717
-0.0937684 -0.309933 -0.296647
-0.0984734 -0.314228 -0.298475
-0.0963345 -0.327566 -0.312358
-0.100886 -0.331742 -0.314004
-0.0987271 -0.344867 -0.327789
-0.103114 -0.34892 -0.329259
-0.100948 -0.361828 -0.342892
-0.105159 -0.365757 -0.344195
-0.102998 -0.378444 -0.357621
-0.107023 -0.382247 -0.358765
-0.104879 -0.394707 -0.371926
-0.108709 -0.398385 -0.37292
-0.106594 -0.41061 -0.38576
-0.11022 -0.414163 -0.386613
-0.108146 -0.426147 -0.399071
-0.111559 -0.429575 -0.399793
-0.109537 -0.44131 -0.411809
-0.11273 -0.444614 -0.41241
-0.110771 -0.456092 -0.423921
-0.113737 -0.459273 -0.424413
-0.111853 -0.470487 -0.435355
-0.114585 -0.473544 -0.435747
-0.112789 -0.484485 -0.446054
-0.11528 -0.48742 -0.446359
-0.113584 -0.498079 -0.455964
-0.115829 -0.500892 -0.456193
-0.114247 -0.51126 -0.465025
-0.116239 -0.513952 -0.465191
-0.114785 -0.52402 -0.473178
-0.116521 -0.526592 -0.473294
-0.115213 -0.536351 -0.480361
-0.116688 -0.538802 -0.480442
-0.115544 -0.548243 -0.486514
-0.116758 -0.550575 -0.486567
-0.115806 -0.559687 -0.491575
-0.116757 -0.561902 -0.491599
-0.116008 -0.570691 -0.49553
-0.116744 -0.572781 -0.495464
-0.116485 -0.581203 -0.498444
-0.116645 -0.583208 -0.497862
-0.00404777 -0.00858379 -0.0174549
-0.00769221 -0.00839308 -0.018117
-0.0084816 -0.0126858 -0.035614
-0.0145732 -0.0124407 -0.0379006
-0.0129008 -0.0194071 -0.0543913
-0.0196253 -0.0192436 -0.0575655
-0.0171296 -0.0283807 -0.0728614
-0.0240166 -0.0287455 -0.0766633
-0.0215396 -0.0396774 -0.0911146
-0.0283115 -0.0406926 -0.0951811
-0.0263975 -0.0534382 -0.108854
-0.0328795 -0.0549457 -0.113226
-0.0316094 -0.0693741 -0.126108
-0.0378349 -0.0713489 -0.130771
-0.0371368 -0.087232 -0.142976
-0.0431328 -0.0896407 -0.147799
-0.0431522 -0.106965 -0.159403
-0.0487727 -0.109423 -0.164248
-0.0497395 -0.128373 -0.174981
-0.0544876 -0.129988 -0.180077
-0.0542658 -0.148269 -0.190389
-0.0598739 -0.151155 -0.195466
-0.0586724 -0.168263 -0.206042
-0.0643378 -0.171733 -0.21083
-0.0625722 -0.187962 -0.222095
-0.0682036 -0.191993 -0.226222
-0.0662505 -0.207533 -0.238137
-0.0717089 -0.211863 -0.241701
-0.0697692 -0.226882 -0.254132
-0.0750488 -0.231358 -0.257227
-0.0731643 -0.245981 -0.270035
-0.0782747 -0.250488 -0.272762
-0.0764337 -0.26479 -0.285827
-0.0813885 -0.269261 -0.288257
-0.0795673 -0.283288 -0.30148
-0.0843725 -0.287683 -0.30366
-0.0825534 -0.301456 -0.316963
-0.087209 -0.305753 -0.318921
-0.0853831 -0.319282 -0.332236
-0.0898848 -0.323469 -0.333992
-0.0880506 -0.336756 -0.347259
-0.0923913 -0.340827 -0.348825
-0.0905529 -0.353871 -0.361987
-0.0947242 -0.357821 -0.363374
-0.0928889 -0.370618 -0.376374
-0.0968819 -0.374447 -0.377591
-0.095059 -0.38699 -0.390372
-0.0988645 -0.390697 -0.39143
-0.0970643 -0.40298 -0.403934
-0.100673 -0.406565 -0.404841
-0.0989068 -0.418581 -0.417009
-0.102311 -0.422045 -0.417776
-0.100589 -0.433784 -0.429547
-0.10378 -0.437128 -0.430185
-0.102114 -0.448583 -0.441497
-0.105085 -0.451807 -0.442015
-0.103486 -0.46297 -0.452807
-0.106229 -0.466074 -0.453215
-0.10471 -0.476935 -0.463421
-0.107217 -0.479922 -0.463731
-0.105791 -0.49047 -0.473284
-0.108057 -0.493341 -0.473508
-0.106735 -0.503568 -0.48234
-0.108754 -0.506322 -0.48249
-0.107551 -0.516217 -0.49053
-0.109318 -0.518856 -0.490617
-0.108248 -0.528408 -0.497792
-0.109757 -0.530934 -0.497832
-0.108837 -0.54013 -0.504067
-0.110086 -0.542544 -0.504071
-0.109335 -0.551374 -0.509292
-0.110322 -0.553676 -0.50927
-0.109759 -0.562133 -0.513408
-0.110485 -0.564314 -0.51336
-0.110097 -0.57238 -0.516343
-0.110566 -0.574439 -0.516291
-0.110366 -0.582083 -0.518062
-0.110523 -0.584066 -0.518055
-0.00154467 -0.00173342 -0.0127114
-0.0041085 -0.00654146 -0.0286455
-0.00760162 -0.0137333 -0.0444828
-0.0118912 -0.0220365 -0.0593644
-0.0168126 -0.0324917 -0.0753577