# vtk DataFile Version 3.0
STAP++ Results
ASCII
DATASET UNSTRUCTURED_GRID
POINTS 4085 float
200 -10 0
200 10 0
150 10 0
150 -10 0
100 10 0
100 -10 0
50 10 0
50 -10 0
0 10 0
0 -10 0
-50 10 0
-50 -10 0
-100 10 0
-100 -10 0
-150 10 0
-150 -10 0
-200 10 0
-200 -10 0
-250 10 0
-250 -10 0
250 -10 0
250 10 0
200 -5 0
200 0 0
200 5 0
195 10 0
190 10 0
185 10 0
180 10 0
175 10 0
170 10 0
165 10 0
160 10 0
155 10 0
150 5 0
150 0 0
150 -5 0
155 -10 0
160 -10 0
165 -10 0
170 -10 0
175 -10 0
180 -10 0
185 -10 0
190 -10 0
195 -10 0
145 10 0
140 10 0
135 10 0
130 10 0
125 10 0
120 10 0
115 10 0
110 10 0
105 10 0
100 5 0
100 0 0
100 -5 0
105 -10 0
110 -10 0
115 -10 0
120 -10 0
125 -10 0
130 -10 0
135 -10 0
140 -10 0
145 -10 0
95 10 0
90 10 0
85 10 0
80 10 0
75 10 0
70 10 0
65 10 0
60 10 0
55 10 0
50 5 0
50 0 0
50 -5 0
55 -10 0
60 -10 0
65 -10 0
70 -10 0
75 -10 0
80 -10 0
85 -10 0
90 -10 0
95 -10 0
45 10 0
40 10 0
35 10 0
30 10 0
25 10 0
20 10 0
15 10 0
10 10 0
5 10 0
0 5 0
0 0 0
0 -5 0
5 -10 0
10 -10 0
15 -10 0
20 -10 0
25 -10 0
30 -10 0
35 -10 0
40 -10 0
45 -10 0
-5 10 0
-10 10 0
-15 10 0
-20 10 0
-25 10 0
-30 10 0
-35 10 0
-40 10 0
-45 10 0
-50 5 0
-50 0 0
-50 -5 0
-45 -10 0
-40 -10 0
-35 -10 0
-30 -10 0
-25 -10 0
-20 -10 0
-15 -10 0
-10 -10 0
-5 -10 0
-55 10 0
-60 10 0
-65 10 0
-70 10 0
-75 10 0
-80 10 0
-85 10 0
-90 10 0
-95 10 0
-100 5 0
-100 0 0
-100 -5 0
-95 -10 0
-90 -10 0
-85 -10 0
-80 -10 0
-75 -10 0
-70 -10 0
-65 -10 0
-60 -10 0
-55 -10 0
-105 10 0
-110 10 0
-115 10 0
-120 10 0
-125 10 0
-130 10 0
-135 10 0
-140 10 0
-145 10 0
-150 5 0
-150 0 0
-150 -5 0
-145 -10 0
-140 -10 0
-135 -10 0
-130 -10 0
-125 -10 0
-120 -10 0
-115 -10 0
-110 -10 0
-105 -10 0
-155 10 0
-160 10 0
-165 10 0
-170 10 0
-175 10 0
-180 10 0
-185 10 0
-190 10 0
-195 10 0
-200 5 0
-200 0 0
-200 -5 0
-195 -10 0
-190 -10 0
-185 -10 0
-180 -10 0
-175 -10 0
-170 -10 0
-165 -10 0
-160 -10 0
-155 -10 0
-205 10 0
-210 10 0
-215 10 0
-220 10 0
-225 10 0
-230 10 0
-235 10 0
-240 10 0
-245 10 0
-250 5 0
-250 0 0
-250 -5 0
-245 -10 0
-240 -10 0
-235 -10 0
-230 -10 0
-225 -10 0
-220 -10 0
-215 -10 0
-210 -10 0
-205 -10 0
205 -10 0
210 -10 0
215 -10 0
220 -10 0
225 -10 0
230 -10 0
235 -10 0
240 -10 0
245 -10 0
250 -5 0
250 0 0
250 5 0
245 10 0
240 10 0
235 10 0
230 10 0
225 10 0
220 10 0
215 10 0
210 10 0
205 10 0
195 -5 0
195 0 0
195 5 0
190 -5 0
190 0 0
190 5 0
185 -5 0
185 0 0
185 5 0
180 -5 0
180 0 0
180 5 0
175 -5 0
175 0 0
175 5 0
170 -5 0
170 0 0
170 5 0
165 -5 0
165 0 0
165 5 0
160 -5 0
160 0 0
160 5 0
155 -5 0
155 0 0
155 5 0
145 -5 0
145 0 0
145 5 0
140 -5 0
140 0 0
140 5 0
135 -5 0
135 0 0
135 5 0
130 -5 0
130 0 0
130 5 0
125 -5 0
125 0 0
125 5 0
120 -5 0
120 0 0
120 5 0
115 -5 0
115 0 0
115 5 0
110 -5 0
110 0 0
110 5 0
105 -5 0
105 0 0
105 5 0
95 -5 0
95 0 0
95 5 0
90 -5 0
90 0 0
90 5 0
85 -5 0
85 0 0
85 5 0
80 -5 0
80 0 0
80 5 0
75 -5 0
75 0 0
75 5 0
70 -5 0
70 0 0
70 5 0
65 -5 0
65 0 0
65 5 0
60 -5 0
60 0 0
60 5 0
55 -5 0
55 0 0
55 5 0
45 -5 0
45 0 0
45 5 0
40 -5 0
40 0 0
40 5 0
35 -5 0
35 0 0
35 5 0
30 -5 0
30 0 0
30 5 0
25 -5 0
25 0 0
25 5 0
20 -5 0
20 0 0
20 5 0
15 -5 0
15 0 0
15 5 0
10 -5 0
10 0 0
10 5 0
5 -5 0
5 0 0
5 5 0
-5 -5 0
-5 0 0
-5 5 0
-10 -5 0
-10 0 0
-10 5 0
-15 -5 0
-15 0 0
-15 5 0
-20 -5 0
-20 0 0
-20 5 0
-25 -5 0
-25 0 0
-25 5 0
-30 -5 0
-30 0 0
-30 5 0
-35 -5 0
-35 0 0
-35 5 0
-40 -5 0
-40 0 0
-40 5 0
-45 -5 0
-45 0 0
-45 5 0
-55 -5 0
-55 0 0
-55 5 0
-60 -5 0
-60 0 0
-60 5 0
-65 -5 0
-65 0 0
-65 5 0
-70 -5 0
-70 0 0
-70 5 0
-75 -5 0
-75 0 0
-75 5 0
-80 -5 0
-80 0 0
-80 5 0
-85 -5 0
-85 0 0
-85 5 0
-90 -5 0
-90 0 0
-90 5 0
-95 -5 0
-95 0 0
-95 5 0
-105 -5 0
-105 0 0
-105 5 0
-110 -5 0
-110 0 0
-110 5 0
-115 -5 0
-115 0 0
-115 5 0
-120 -5 0
-120 0 0
-120 5 0
-125 -5 0
-125 0 0
-125 5 0
-130 -5 0
-130 0 0
-130 5 0
-135 -5 0
-135 0 0
-135 5 0
-140 -5 0
-140 0 0
-140 5 0
-145 -5 0
-145 0 0
-145 5 0
-155 -5 0
-155 0 0
-155 5 0
-160 -5 0
-160 0 0
-160 5 0
-165 -5 0
-165 0 0
-165 5 0
-170 -5 0
-170 0 0
-170 5 0
-175 -5 0
-175 0 0
-175 5 0
-180 -5 0
-180 0 0
-180 5 0
-185 -5 0
-185 0 0
-185 5 0
-190 -5 0
-190 0 0
-190 5 0
-195 -5 0
-195 0 0
-195 5 0
-205 -5 0
-205 0 0
-205 5 0
-210 -5 0
-210 0 0
-210 5 0
-215 -5 0
-215 0 0
-215 5 0
-220 -5 0
-220 0 0
-220 5 0
-225 -5 0
-225 0 0
-225 5 0
-230 -5 0
-230 0 0
-230 5 0
-235 -5 0
-235 0 0
-235 5 0
-240 -5 0
-240 0 0
-240 5 0
-245 -5 0
-245 0 0
-245 5 0
205 5 0
205 0 0
205 -5 0
210 5 0
210 0 0
210 -5 0
215 5 0
215 0 0
215 -5 0
220 5 0
220 0 0
220 -5 0
225 5 0
225 0 0
225 -5 0
230 5 0
230 0 0
230 -5 0
235 5 0
235 0 0
235 -5 0
240 5 0
240 0 0
240 -5 0
245 5 0
245 0 0
245 -5 0
0 -10 -50
0 -20 -50
-20 -20 -50
-20 -10 -50
0 -20 150
-10 -20 150
-10 -10 150
0 -10 150
20 -10 -50
20 -20 -50
10 -10 150
10 -20 150
0 -15 -50
-6.66667 -20 -50
-13.3333 -20 -50
-20 -15 -50
-13.3333 -10 -50
-6.66667 -10 -50
0 -15 150
-6.66667 -20 150
-3.33333 -20 150
-10 -15 150
-3.33333 -10 150
-6.66667 -10 150
-19.75 -10 -45
-19.5 -10 -40
-19.25 -10 -35
-19 -10 -30
-18.75 -10 -25
-18.5 -10 -20
-18.25 -10 -15
-18 -10 -10
-17.75 -10 -5
-17.5 -10 0
-17.25 -10 5
-17 -10 10
-16.75 -10 15
-16.5 -10 20
-16.25 -10 25
-16 -10 30
-15.75 -10 35
-15.5 -10 40
-15.25 -10 45
-15 -10 50
-14.75 -10 55
-14.5 -10 60
-14.25 -10 65
-14 -10 70
-13.75 -10 75
-13.5 -10 80
-13.25 -10 85
-13 -10 90
-12.75 -10 95
-12.5 -10 100
-12.25 -10 105
-12 -10 110
-11.75 -10 115
-11.5 -10 120
-11.25 -10 125
-11 -10 130
-10.75 -10 135
-10.5 -10 140
-10.25 -10 145
0 -10 145
0 -10 140
0 -10 135
0 -10 130
0 -10 125
0 -10 120
0 -10 115
0 -10 110
0 -10 105
0 -10 100
0 -10 95
0 -10 90
0 -10 85
0 -10 80
0 -10 75
0 -10 70
0 -10 65
0 -10 60
0 -10 55
0 -10 50
0 -10 45
0 -10 40
0 -10 35
0 -10 30
0 -10 25
0 -10 20
0 -10 15
0 -10 10
0 -10 5
0 -10 -5
0 -10 -10
0 -10 -15
0 -10 -20
0 -10 -25
0 -10 -30
0 -10 -35
0 -10 -40
0 -10 -45
-10.25 -20 145
-10.5 -20 140
-10.75 -20 135
-11 -20 130
-11.25 -20 125
-11.5 -20 120
-11.75 -20 115
-12 -20 110
-12.25 -20 105
-12.5 -20 100
-12.75 -20 95
-13 -20 90
-13.25 -20 85
-13.5 -20 80
-13.75 -20 75
-14 -20 70
-14.25 -20 65
-14.5 -20 60
-14.75 -20 55
-15 -20 50
-15.25 -20 45
-15.5 -20 40
-15.75 -20 35
-16 -20 30
-16.25 -20 25
-16.5 -20 20
-16.75 -20 15
-17 -20 10
-17.25 -20 5
-17.5 -20 0
-17.75 -20 -5
-18 -20 -10
-18.25 -20 -15
-18.5 -20 -20
-18.75 -20 -25
-19 -20 -30
-19.25 -20 -35
-19.5 -20 -40
-19.75 -20 -45
0 -20 -45
0 -20 -40
0 -20 -35
0 -20 -30
0 -20 -25
0 -20 -20
0 -20 -15
0 -20 -10
0 -20 -5
0 -20 0
0 -20 5
0 -20 10
0 -20 15
0 -20 20
0 -20 25
0 -20 30
0 -20 35
0 -20 40
0 -20 45
0 -20 50
0 -20 55
0 -20 60
0 -20 65
0 -20 70
0 -20 75
0 -20 80
0 -20 85
0 -20 90
0 -20 95
0 -20 100
0 -20 105
0 -20 110
0 -20 115
0 -20 120
0 -20 125
0 -20 130
0 -20 135
0 -20 140
0 -20 145
6.66667 -10 -50
13.3333 -10 -50
20 -15 -50
13.3333 -20 -50
6.66667 -20 -50
6.66667 -10 150
3.33333 -10 150
10 -15 150
3.33333 -20 150
6.66667 -20 150
19.75 -20 -45
19.5 -20 -40
19.25 -20 -35
19 -20 -30
18.75 -20 -25
18.5 -20 -20
18.25 -20 -15
18 -20 -10
17.75 -20 -5
17.5 -20 0
17.25 -20 5
17 -20 10
16.75 -20 15
16.5 -20 20
16.25 -20 25
16 -20 30
15.75 -20 35
15.5 -20 40
15.25 -20 45
15 -20 50
14.75 -20 55
14.5 -20 60
14.25 -20 65
14 -20 70
13.75 -20 75
13.5 -20 80
13.25 -20 85
13 -20 90
12.75 -20 95
12.5 -20 100
12.25 -20 105
12 -20 110
11.75 -20 115
11.5 -20 120
11.25 -20 125
11 -20 130
10.75 -20 135
10.5 -20 140
10.25 -20 145
10.25 -10 145
10.5 -10 140
10.75 -10 135
11 -10 130
11.25 -10 125
11.5 -10 120
11.75 -10 115
12 -10 110
12.25 -10 105
12.5 -10 100
12.75 -10 95
13 -10 90
13.25 -10 85
13.5 -10 80
13.75 -10 75
14 -10 70
14.25 -10 65
14.5 -10 60
14.75 -10 55
15 -10 50
15.25 -10 45
15.5 -10 40
15.75 -10 35
16 -10 30
16.25 -10 25
16.5 -10 20
16.75 -10 15
17 -10 10
17.25 -10 5
17.5 -10 0
17.75 -10 -5
18 -10 -10
18.25 -10 -15
18.5 -10 -20
18.75 -10 -25
19 -10 -30
19.25 -10 -35
19.5 -10 -40
19.75 -10 -45
-6.66667 -15 -50
-13.3333 -15 -50
-3.33333 -15 150
-6.66667 -15 150
-6.58333 -10 -45
-13.1667 -10 -45
-6.5 -10 -40
-13 -10 -40
-6.41667 -10 -35
-12.8333 -10 -35
-6.33333 -10 -30
-12.6667 -10 -30
-6.25 -10 -25
-12.5 -10 -25
-6.16667 -10 -20
-12.3333 -10 -20
-6.08333 -10 -15
-12.1667 -10 -15
-6 -10 -10
-12 -10 -10
-5.91667 -10 -5
-11.8333 -10 -5
-5.83333 -10 0
-11.6667 -10 0
-5.75 -10 5
-11.5 -10 5
-5.66667 -10 10
-11.3333 -10 10
-5.58333 -10 15
-11.1667 -10 15
-5.5 -10 20
-11 -10 20
-5.41667 -10 25
-10.8333 -10 25
-5.33333 -10 30
-10.6667 -10 30
-5.25 -10 35
-10.5 -10 35
-5.16667 -10 40
-10.3333 -10 40
-5.08333 -10 45
-10.1667 -10 45
-5 -10 50
-10 -10 50
-4.91667 -10 55
-9.83333 -10 55
-4.83333 -10 60
-9.66667 -10 60
-4.75 -10 65
-9.5 -10 65
-4.66667 -10 70
-9.33333 -10 70
-4.58333 -10 75
-9.16667 -10 75
-4.5 -10 80
-9 -10 80
-4.41667 -10 85
-8.83333 -10 85
-4.33333 -10 90
-8.66667 -10 90
-4.25 -10 95
-8.5 -10 95
-4.16667 -10 100
-8.33333 -10 100
-4.08333 -10 105
-8.16667 -10 105
-4 -10 110
-8 -10 110
-3.91667 -10 115
-7.83333 -10 115
-3.83333 -10 120
-7.66667 -10 120
-3.75 -10 125
-7.5 -10 125
-3.66667 -10 130
-7.33333 -10 130
-3.58333 -10 135
-7.16667 -10 135
-3.5 -10 140
-7 -10 140
-3.41667 -10 145
-6.83333 -10 145
-6.58333 -20 -45
-13.1667 -20 -45
-6.5 -20 -40
-13 -20 -40
-6.41667 -20 -35
-12.8333 -20 -35
-6.33333 -20 -30
-12.6667 -20 -30
-6.25 -20 -25
-12.5 -20 -25
-6.16667 -20 -20
-12.3333 -20 -20
-6.08333 -20 -15
-12.1667 -20 -15
-6 -20 -10
-12 -20 -10
-5.91667 -20 -5
-11.8333 -20 -5
-5.83333 -20 0
-11.6667 -20 0
-5.75 -20 5
-11.5 -20 5
-5.66667 -20 10
-11.3333 -20 10
-5.58333 -20 15
-11.1667 -20 15
-5.5 -20 20
-11 -20 20
-5.41667 -20 25
-10.8333 -20 25
-5.33333 -20 30
-10.6667 -20 30
-5.25 -20 35
-10.5 -20 35
-5.16667 -20 40
-10.3333 -20 40
-5.08333 -20 45
-10.1667 -20 45
-5 -20 50
-10 -20 50
-4.91667 -20 55
-9.83333 -20 55
-4.83333 -20 60
-9.66667 -20 60
-4.75 -20 65
-9.5 -20 65
-4.66667 -20 70
-9.33333 -20 70
-4.58333 -20 75
-9.16667 -20 75
-4.5 -20 80
-9 -20 80
-4.41667 -20 85
-8.83333 -20 85
-4.33333 -20 90
-8.66667 -20 90
-4.25 -20 95
-8.5 -20 95
-4.16667 -20 100
-8.33333 -20 100
-4.08333 -20 105
-8.16667 -20 105
-4 -20 110
-8 -20 110
-3.91667 -20 115
[...]
POINT_DATA 4085
VECTORS Displacement float
-0.267638 4.82555 0.925428
-0.266021 -2.68938 0.927997
-0.455172 0.466119 0.437026
-0.456118 1.08311 0.436034
-0.0957921 0.2116 0.275375
-0.100754 0.799621 0.270485
-0.32705 0.377519 0.113095
-0.333307 0.157214 0.108903
-0.0934183 0.117559 -0.0337856
-0.0969277 0.150479 -0.0347454
-0.151278 0.0254415 -0.216527
-0.175129 -0.219378 -0.210638
-0.217059 -0.510418 -0.58654
-0.226631 0.0836607 -0.583325
0.276763 -0.611478 -0.960248
0.265925 0.0135513 -0.955005
0.150302 -4.12533 -0.676024
0.13667 3.39611 -0.675434
-79.8585 211.66 131.754
-79.8648 211.669 131.76
77.9675 53.8001 131.757
77.9647 53.8036 131.754
0 0 -261.873
0 0 1.96509
0 0 -261.872
0 0 -264.654
0 0 -2.8315
0 0 -267.281
0 0 -3.95706
0 0 -267.238
0 0 -2.99701
0 0 -265.673
0 0 -1.09297
0 0 -263.762
0 0 -263.307
0 0 0.235844
0 0 -263.307
0 0 -263.763
0 0 -1.09395
0 0 -265.674
0 0 -2.99841
0 0 -267.24
0 0 -3.95893
0 0 -267.283
0 0 -2.83382
0 0 -264.657
0 0 -262.877
0 0 0.886406
0 0 -262.698
0 0 0.868274
0 0 -262.85
0 0 0.655275
0 0 -263.091
0 0 0.430715
0 0 -263.294
0 0 -263.37
0 0 0.25848
0 0 -263.372
0 0 -263.299
0 0 0.426472
0 0 -263.094
0 0 0.651875
0 0 -262.853
0 0 0.86575
0 0 -262.7
0 0 0.884745
0 0 -262.878
0 0 -263.441
0 0 0.0849558
0 0 -263.662
0 0 -0.0923073
0 0 -263.778
0 0 -0.126812
0 0 -263.74
0 0 -0.0200872
0 0 -263.601
0 0 -263.59
0 0 0.0520677
0 0 -263.592
0 0 -263.605
0 0 -0.024166
0 0 -263.744
0 0 -0.131055
0 0 -263.783
0 0 -0.0967107
0 0 -263.666
0 0 0.0803893
0 0 -263.446
0 0 -263.557
0 0 0.0389212
0 0 -263.693
0 0 -0.0919448
0 0 -263.792
0 0 -0.138581
0 0 -263.785
0 0 -0.0859005
0 0 -263.713
0 0 -263.715
0 0 -0.063891
0 0 -263.715
0 0 -263.713
0 0 -0.086314
0 0 -263.786
0 0 -0.139796
0 0 -263.793
0 0 -0.0940518
0 0 -263.696
0 0 0.0359167
0 0 -263.561
0 0 -263.726
0 0 -0.134187
0 0 -263.874
0 0 -0.274636
0 0 -263.975
0 0 -0.322323
0 0 -263.965
0 0 -0.268125
0 0 -263.888
0 0 -263.919
0 0 -0.2762
0 0 -263.915
0 0 -263.884
0 0 -0.264052
0 0 -263.961
0 0 -0.319641
0 0 -263.973
0 0 -0.273255
0 0 -263.874
0 0 -0.134032
0 0 -263.727
0 0 -263.932
0 0 -0.393321
0 0 -264.168
0 0 -0.626188
0 0 -264.352
0 0 -0.745568
0 0 -264.386
0 0 -0.707627
0 0 -264.283
0 0 -264.226
0 0 -0.597538
0 0 -264.224
0 0 -264.279
0 0 -0.703457
0 0 -264.382
0 0 -0.74029
0 0 -264.346
0 0 -0.619793
0 0 -264.161
0 0 -0.386013
0 0 -263.925
0 0 -264.168
0 0 -0.491081
0 0 -264.066
0 0 -0.388002
0 0 -263.959
0 0 -0.315843
0 0 -263.947
0 0 -0.428225
0 0 -264.24
0 0 -264.696
0 0 -1.15561
0 0 -264.694
0 0 -264.235
0 0 -0.423164
0 0 -263.942
0 0 -0.311244
0 0 -263.955
0 0 -0.383893
0 0 -264.062
0 0 -0.487444
0 0 -264.165
0 0 -265.181
0 0 -2.55559
0 0 -267.173
0 0 -4.54259
0 0 -268.817
0 0 -5.57044
0 0 -268.91
0 0 -4.47191
0 0 -266.28
0 0 -263.461
0 0 0.376078
0 0 -263.462
0 0 -266.279
0 0 -4.47141
0 0 -268.909
0 0 -5.5687
0 0 -268.814
0 0 -4.53952
0 0 -267.169
0 0 -2.55123
0 0 -265.176
0 0 -260.268
0 0 10.5583
0 0 -243.27
0 0 32.0873
0 0 -217.731
0 0 61.0604
0 0 -185.914
0 0 95.1125
0 0 -150.248
79.8618 -211.662 -131.76
-79.8603 211.664 131.757
79.863 -211.666 -131.762
0 0 -150.245
0 0 95.1159
0 0 -185.912
0 0 61.0628
0 0 -217.729
0 0 32.0887
0 0 -243.269
0 0 10.5589
0 0 -260.267
0 0 -258.723
0 0 12.0186
0 0 -241.932
0 0 33.2862
0 0 -216.702
0 0 61.9106
0 0 -185.267
0 0 95.5549
0 0 -150.026
-77.9674 -53.8027 -131.762
77.967 53.8015 131.758
-77.9676 -53.8027 -131.76
0 0 -150.037
0 0 95.5477
0 0 -185.274
0 0 61.9052
0 0 -216.707
0 0 33.2838
0 0 -241.933
0 0 12.0192
0 0 -258.721
0 0 -0.929712
0 0 -264.454
0 0 -0.928466
0 0 -266.127
0 0 -2.4973
0 0 -266.126
0 0 -3.47889
0 0 -266.959
0 0 -3.47784
0 0 -267.315
0 0 -3.68345
0 0 -267.314
0 0 -3.51463
0 0 -267.035
0 0 -3.51381
0 0 -266.483
0 0 -2.87563
0 0 -266.482
0 0 -2.06655
0 0 -265.645
0 0 -2.06596
0 0 -264.741
0 0 -1.17003
0 0 -264.74
0 0 -0.315562
0 0 -263.966
0 0 -0.31514
0 0 0.645923
0 0 -262.987
0 0 0.646538
0 0 -262.79
0 0 0.800439
0 0 -262.789
0 0 0.872405
0 0 -262.757
0 0 0.873448
0 0 -262.78
0 0 0.829383
0 0 -262.779
0 0 0.754435
0 0 -262.872
0 0 0.755915
0 0 -262.978
0 0 0.644564
0 0 -262.977
0 0 0.53419
0 0 -263.093
0 0 0.536103
0 0 -263.2
0 0 0.432073
0 0 -263.198
0 0 0.341056
0 0 -263.289
0 0 0.343296
0 0 0.176529
0 0 -263.469
0 0 0.178818
0 0 -263.564
0 0 0.0765235
0 0 -263.562
0 0 -0.0157764
0 0 -263.658
0 0 -0.0135363
0 0 -263.732
0 0 -0.0818771
0 0 -263.73
0 0 -0.121689
0 0 -263.766
0 0 -0.119529
0 0 -263.771
0 0 -0.117339
0 0 -263.769
0 0 -0.0867211
0 0 -263.738
0 0 -0.084645
0 0 -263.686
0 0 -0.033305
0 0 -263.683
0 0 0.0288571
0 0 -263.636
0 0 0.0307448
0 0 0.0626276
0 0 -263.61
0 0 0.0642455
0 0 -263.641
0 0 0.0133412
0 0 -263.639
0 0 -0.0385034
0 0 -263.702
0 0 -0.0372302
0 0 -263.753
0 0 -0.090261
0 0 -263.752
0 0 -0.124598
0 0 -263.785
0 0 -0.12377
0 0 -263.797
0 0 -0.132125
0 0 -263.796
0 0 -0.119571
0 0 -263.783
0 0 -0.119182
0 0 -263.754
0 0 -0.0922227
0 0 -263.754
0 0 -0.0617125
0 0 -263.729
0 0 -0.0617518
0 0 -0.0832979
0 0 -263.754
0 0 -0.0833448
0 0 -263.807
0 0 -0.146322
0 0 -263.807
0 0 -0.210813
0 0 -263.875
0 0 -0.211197
0 0 -263.931
0 0 -0.268089
0 0 -263.932
0 0 -0.305062
0 0 -263.966
0 0 -0.306077
0 0 -263.976
0 0 -0.315142
0 0 -263.978
0 0 -0.302391
0 0 -263.965
0 0 -0.304076
0 0 -263.935
0 0 -0.281655
0 0 -263.937
0 0 -0.253097
0 0 -263.923
0 0 -0.255749
0 0 -0.310326
0 0 -263.983
0 0 -0.314041
0 0 -264.059
0 0 -0.41399
0 0 -264.062
0 0 -0.515001
0 0 -264.17
0 0 -0.518458
0 0 -264.264
0 0 -0.616051
0 0 -264.268
0 0 -0.690305
0 0 -264.335
0 0 -0.693226
0 0 -264.374
0 0 -0.727637
0 0 -264.376
0 0 -0.731384
0 0 -264.372
0 0 -0.733745
0 0 -264.34
0 0 -0.700551
0 0 -264.342
0 0 -0.648279
0 0 -264.288
0 0 -0.65018
0 0 -0.540829
0 0 -264.175
0 0 -0.542606
0 0 -264.12
0 0 -0.495367
0 0 -264.122
0 0 -0.442897
0 0 -264.071
0 0 -0.444833
0 0 -264.015
0 0 -0.39831
0 0 -264.017
0 0 -0.353774
0 0 -263.979
0 0 -0.355951
0 0 -263.954
0 0 -0.349388
0 0 -263.956
0 0 -0.371611
0 0 -263.998
0 0 -0.374029
0 0 -264.09
0 0 -0.503332
0 0 -264.092
0 0 -0.707603
0 0 -264.335
0 0 -0.710216
0 0 -1.73906
0 0 -265.389
0 0 -1.74151
0 0 -266.197
0 0 -2.63287
0 0 -266.2
0 0 -3.5675
0 0 -267.143
0 0 -3.56936
0 0 -268.019
0 0 -4.41711
0 0 -268.021
0 0 -5.09166
0 0 -268.607
0 0 -5.09286
0 0 -268.916
0 0 -5.28938
0 0 -268.917
0 0 -5.10468
0 0 -268.579
0 0 -5.10523
0 0 -267.754
0 0 -4.12806
0 0 -267.754
0 0 -2.55181
0 0 -266.07
0 0 -2.5517
0 0 4.61538
0 0 -258.444
0 0 4.61543
0 0 -251.821
0 0 12.0848
0 0 -251.821
0 0 21.2377
0 0 -241.951
0 0 21.2372
0 0 -230.586
0 0 33.2157
0 0 -230.586
0 0 46.4968
0 0 -216.787
0 0 46.4958
0 0 -201.888
0 0 61.8203
0 0 -201.889
0 0 78.0363
0 0 -185.341
0 0 78.0349
0 0 -168.116
0 0 95.498
0 0 -168.117
0 0 113.418
0 0 -150.054
0 0 113.416
0 0 6.1516
0 0 -256.918
0 0 6.1507
0 0 -250.379
0 0 13.528
0 0 -250.379
0 0 22.5673
0 0 -240.63
0 0 22.5677
0 0 -229.404
0 0 34.3998
0 0 -229.403
0 0 47.5181
0 0 -215.772
0 0 47.52
0 0 -201.055
0 0 62.6583
0 0 -201.051
0 0 78.6769
0 0 -184.704
0 0 78.6801
0 0 -167.688
0 0 95.9324
0 0 -167.684
0 0 113.636
0 0 -149.837
0 0 113.637
0 0 0
0 0 0
0 0 0
0 0 0
-0.797078 0.0365442 -0.0214798
0.795207 -0.0385926 0.00379387
0.795049 -0.0377233 0.00338289
-0.797069 0.0352292 -0.0208665
0 0 0
0 0 0
0.791905 -0.0383135 0.0044356
0.79173 -0.0378693 0.00482834
0 0 0
0 0 0
0 0 0
0 0 0
0 0 0
0 0 0
0.792547 -0.0379295 -0.00492389
-0.798658 0.0368041 -0.0210295
0.79386 -0.0384392 0.00553198
-0.799945 0.0362795 -0.0368887
0.793827 -0.0379379 0.00512205
-0.798536 0.035584 -0.02054
-16.8847 12.7432 0.00425623
-17.7137 13.3764 0.011212
32.7422 -25.6867 0.0137074
-0.00292436 -0.0118133 0.0253048
-4.65629 3.69389 0.0195567
1.63553 -1.37386 0.0245086
0.0487483 -0.0795286 0.0222028
-2.09664 1.6966 0.0252042
-0.717332 0.540234 0.0205508
0.0949961 -0.152197 0.0243992
0.594724 -0.582884 0.0191632
-0.869774 0.698246 0.0230092
0.250018 -0.295674 0.0170531
0.0122173 -0.0829397 0.0215874
3.98437 -3.71985 0.0150475
5.72352 -5.33956 0.0201563
2.20167 -2.01004 0.0131466
2.19987 -2.01021 0.0187544
-0.389157 0.517461 0.0113258
0.312098 -0.17985 0.0173971
0.243696 -0.10911 0.00957577
0.856123 -0.739046 0.016088
0.564774 -0.433303 0.00789579
0.320038 -0.175157 0.0148257
0.318399 -0.171712 0.0062896
0.79235 -0.695166 0.0136055
1.2536 -1.21087 0.00476532
0.444758 -0.288034 0.0124183
0.403923 -0.239026 0.0033372
0.152103 0.0588121 0.0112482
0.14695 0.0662376 0.0020289
0.910271 -0.8791 0.0100684
0.576967 -0.457328 0.00087779
1.11705 -1.1547 0.00883723
0.399512 -0.208414 -6.29654e-05
0.682597 -0.589752 0.0074975
-1.45468 2.3573 -0.000742038
2.5016 -3.22644 0.00595702
20.9326 -29.8754 -0.00135087
-20.9376 29.8739 -0.0403022
-2.50498 3.22417 -0.023766
1.44964 -2.3587 -0.0404818
-0.686247 0.587478 -0.0253723
-0.404249 0.207114 -0.0404867
-1.12084 1.15236 -0.0267319
-0.581443 0.456092 -0.0404438
-0.914116 0.876703 -0.0279445
-0.151213 -0.0674479 -0.0403374
-0.155943 -0.0612681 -0.0290381
-0.408 0.237814 -0.0401571
-0.448546 0.285528 -0.0300267
-1.25751 1.20964 -0.0398996
-0.796053 0.692618 -0.0309174
-0.322137 0.170457 -0.0395656
-0.32363 0.172577 -0.0317135
-0.56834 0.432026 -0.0391577
-0.859584 0.736449 -0.0324157
-0.24708 0.107824 -0.0386796
-0.315413 0.177257 -0.0330232
0.385969 -0.518732 -0.038135
-2.20303 2.00765 -0.033535
-2.20465 2.00883 -0.0375256
-5.7265 5.33708 -0.0339527
-3.98713 3.71876 -0.0368468
-0.0149665 0.080591 -0.0342852
-0.252577 0.294825 -0.0360813
0.867336 -0.70038 -0.0345615
-0.597016 0.582457 -0.0351617
0.715535 -0.540294 -0.0336062
2.09478 -1.69737 -0.0338335
-0.0518667 0.0800695 -0.0325167
-1.63709 1.37366 -0.0315746
4.65468 -3.69312 -0.0266302
-0.00440769 0.0124015 -0.0308396
-32.7437 25.6872 -0.0181903
17.7131 -13.376 -0.0136219
16.8841 -12.7425 -0.00604368
20.9324 -29.8752 -0.0017727
2.50175 -3.2268 0.00627513
-1.45483 2.35748 -0.00104038
0.682723 -0.589899 0.00773249
0.399387 -0.208459 -0.000244885
1.11714 -1.15467 0.00899818
0.576882 -0.457566 0.000783204
0.910332 -0.87896 0.0101728
0.146902 0.0658617 0.00199552
0.152134 0.0590218 0.0113125
0.403906 -0.239498 0.00334339
0.444764 -0.287789 0.0124558
1.25361 -1.21141 0.00479408
0.792337 -0.694908 0.0136253
0.318427 -0.172301 0.00632836
0.320014 -0.174897 0.0148325
0.564817 -0.433931 0.00793602
0.856095 -0.738792 0.0160811
0.243749 -0.109773 0.00961243
0.312074 -0.179604 0.0173702
-0.389097 0.516768 0.0113568
2.19986 -2.00997 0.0186946
2.20173 -2.01076 0.0131716
5.72353 -5.33934 0.0200429
3.98443 -3.72059 0.0150639
0.0122347 -0.0827375 0.0213921
0.250065 -0.296414 0.017045
-0.869754 0.69839 0.0226917
0.594678 -0.583564 0.0191302
0.095048 -0.152402 0.0238714
-0.717455 0.539701 0.0205595
-2.09652 1.69662 0.0245831
0.04842 -0.0786977 0.0223647
1.63589 -1.3739 0.0236368
-4.65659 3.69399 0.0204371
-0.00295603 -0.00686001 0.0240609
32.7425 -25.6869 0.0146552
-17.714 13.3764 0.010656
-16.8845 12.7422 0.00457014
16.8841 -12.7429 -0.00629828
17.7131 -13.3767 -0.0129961
-32.7436 25.6866 -0.0190756
-0.00468592 0.00642502 -0.0291004
4.65462 -3.69444 -0.0276254
-1.63707 1.37374 -0.031164
-0.051921 0.0776743 -0.0329465
2.09486 -1.69741 -0.0338642
0.715393 -0.541128 -0.0341175
-0.0965509 0.15102 -0.0347411
-0.597095 0.581519 -0.0355738
0.867476 -0.700206 -0.0345461
-0.252609 0.294121 -0.0363277
-0.0148563 0.0806276 -0.0342818
-3.98717 3.71817 -0.0369987
-5.7264 5.33708 -0.0339462
-2.20469 2.00828 -0.0376133
-2.20295 2.00767 -0.0335196
0.385927 -0.519268 -0.0381813
-0.315343 0.177308 -0.0329975
-0.24712 0.107294 -0.0387005
-0.859525 0.736534 -0.0323815
-0.568376 0.431503 -0.0391627
-0.323579 0.172694 -0.0316752
-0.32217 0.169943 -0.0395584
-0.79601 0.692766 -0.0308823
-1.25754 1.20914 -0.0398784
-0.44851 0.285706 -0.030006
-0.408025 0.237324 -0.040115
-0.155914 -0.0610575 -0.0290469
-0.151234 -0.0679273 -0.0402629
-0.914094 0.876951 -0.0280025
-0.58146 0.455616 -0.0403219
-1.12082 1.15266 -0.0268626
-0.404262 0.206626 -0.0403011
-0.686242 0.587852 -0.0256015
1.44963 -2.35922 -0.0402185
-2.50498 3.2247 -0.0241221
-20.9376 29.8734 -0.0399493
0 0 0
0 0 0
0 0 0
0 0 0
0 0 0
-0.796401 0.0359851 -0.0216583
0.791811 -0.0381681 0.00423808
-0.7955 0.036161 -0.0377356
0.791725 -0.0378856 0.00463007
-0.796296 0.0362551 -0.0221098
-16.8836 12.7423 0.00472286
-17.7128 13.3761 0.0104892
32.7454 -25.6866 0.0155233
0.0108333 -0.00725146 0.0235258
-4.65263 3.69418 0.0223716
1.63638 -1.37424 0.0224509
0.0544959 -0.0784611 0.0250516
-2.09588 1.69645 0.023138
-0.715333 0.5399 0.0235045
0.0947044 -0.152319 0.022149
0.596636 -0.583379 0.0221786
-0.869382 0.698495 0.0206678
0.251636 -0.296257 0.0201578
0.0127374 -0.0826279 0.0191548
3.98576 -3.7205 0.0182351
5.72402 -5.33924 0.0176608
2.20293 -2.01073 0.0163829
2.20029 -2.00989 0.0161986
-0.387985 0.516766 0.014591
0.312416 -0.179522 0.0147844
0.244796 -0.109801 0.0128532
0.856345 -0.738709 0.0134282
0.56581 -0.433983 0.0111647
0.320163 -0.174804 0.0121392
0.31938 -0.172379 0.00951821
0.792378 -0.694795 0.0109301
1.25453 -1.21153 0.00790201
0.44469 -0.287641 0.0098181
0.404811 -0.239662 0.00629951
0.15194 0.0592248 0.00882424
0.1478 0.0656229 0.00469254
0.91001 -0.878679 0.00796769
0.577791 -0.457902 0.00306914
1.11667 -1.15429 0.00725578
0.400342 -0.208912 0.00143454
0.68206 -0.589405 0.00667122
-1.45383 2.3569 -0.000192795
2.50075 -3.22619 0.00613543
20.9328 -29.8759 -0.0019967
20.9326 -29.8749 -0.00158553
2.50093 -3.22691 0.00582578
-1.45401 2.35769 0.000104643
0.682233 -0.5901 0.00644186
0.40017 -0.208139 0.00161956
1.11682 -1.15492 0.00709906
0.577641 -0.457159 0.00316874
0.910133 -0.879219 0.00786741
0.147671 0.0663201 0.00473116
0.15204 0.0587766 0.00876494
0.4047 -0.239006 0.00629819
0.444771 -0.28801 0.00978676
1.25444 -1.21089 0.00787805
0.792447 -0.695103 0.0109177
0.319289 -0.171756 0.00948492
0.320226 -0.175066 0.0121417
0.56572 -0.433356 0.0111317
0.856409 -0.738934 0.0134468
0.244699 -0.109165 0.0128272
0.312488 -0.179717 0.0148262
-0.388095 0.517414 0.0145765
2.20037 -2.01005 0.0162774
2.2028 -2.01007 0.0163825
5.72411 -5.33936 0.0177987
3.9856 -3.71985 0.018248
0.0128373 -0.08269 0.0193847
0.25143 -0.295659 0.0201762
-0.869309 0.698566 0.0210176
0.596389 -0.582892 0.0221838
0.0947798 -0.151888 0.02263
-0.71559 0.54014 0.0234442
-2.09566 1.6968 0.0236759
0.0541161 -0.0797966 0.0247099
1.63683 -1.37362 0.0233193
-4.6529 3.69319 0.021494
0.0110336 -0.0112719 0.0244537
32.7455 -25.6874 0.014725
-17.713 13.3767 0.0110963
-16.8834 12.743 0.00446671
0 0 0
0 0 0
-0.7983 0.0362703 -0.0386264
0.794476 -0.0382014 -0.00543662
-16.8841 12.7432 0.00455068
16.8838 -12.7423 -0.00621791
-17.7136 13.3765 0.011073
17.7126 -13.3762 -0.0132715
32.7435 -25.6867 0.014071
-32.744 25.6875 -0.0190027
0.00137776 -0.0119097 0.0248791
-0.000540326 0.0121861 -0.0294069
-4.65506 3.69395 0.0199209
4.65446 -3.69323 -0.0276981
1.63608 -1.37391 0.0240641
-1.63736 1.37394 -0.0308042
0.0503248 -0.0795097 0.0226375
-0.0510454 0.0798113 -0.0330483
-2.09608 1.69644 0.0249569
2.09453 -1.6971 -0.0335015
-0.716966 0.540292 0.0208286
0.715214 -0.540574 -0.034068
0.0953857 -0.152349 0.0244247
-0.0973819 0.150971 -0.0345451
0.594856 -0.582818 0.0192751
-0.597189 0.582011 -0.0354276
-0.869257 0.698176 0.0230778
0.86692 -0.700017 -0.0346938
0.25018 -0.295564 0.0170752
-0.252828 0.294455 -0.0360507
0.0127116 -0.0829832 0.0216697
-0.0152973 0.0808596 -0.0345849
3.9845 -3.71974 0.0150297
-3.98741 3.71845 -0.0367226
5.72399 -5.3396 0.020252
-5.72677 5.33732 -0.0342659
2.20178 -2.00995 0.0131096
-2.2049 2.00855 -0.0373995
2.2003 -2.01025 0.0188507
-2.20327 2.00789 -0.0338088
-0.389072 0.517538 0.011283
0.385739 -0.518998 -0.0380348
0.312497 -0.179899 0.0174869
-0.315625 0.177501 -0.0332495
0.243755 -0.10904 0.00953249
-0.247278 0.107559 -0.0386062
0.856495 -0.7391 0.0161715
-0.859771 0.736702 -0.0326009
0.564806 -0.433236 0.00785044
-0.568507 0.43176 -0.0391058
0.320384 -0.175216 0.0149088
-0.323792 0.172836 -0.0318647
0.318409 -0.171646 0.00623534
-0.322274 0.17019 -0.0395323
0.792665 -0.695231 0.0136991
-0.796195 0.692881 -0.0310371
1.2536 -1.2108 0.00468965
-1.25761 1.20938 -0.0398877
0.445034 -0.288107 0.01254
-0.448675 0.28579 -0.0301105
0.403921 -0.238948 0.00321876
-0.408062 0.237552 -0.0401762
0.152324 0.0587241 0.0114271
-0.15607 -0.0610106 -0.0290741
0.146972 0.0663333 0.00183078
-0.151221 -0.0676993 -0.0404052
0.91041 -0.879217 0.0103539
-0.914257 0.87695 -0.0279119
0.577046 -0.457198 0.000536881
-0.581379 0.455856 -0.0405869
1.11707 -1.15486 0.00931109
-1.12102 1.1526 -0.0266013
0.399691 -0.208229 -0.000647701
-0.404081 0.206898 -0.0407391
0.682451 -0.589982 0.00828246
-0.686513 0.587692 -0.02511
-1.45436 2.35755 -0.00170839
1.44994 -2.3589 -0.040873
2.50122 -3.22673 0.00719614
-2.50542 3.22439 -0.0233655
20.9328 -29.8751 -0.00278474
-20.9373 29.8737 -0.0407935
-16.8841 12.7423 0.00487936
16.8837 -12.7431 -0.00643727
-17.7136 13.3762 0.0105078
17.7128 -13.3764 -0.0126149
32.7435 -25.6867 0.0151583
-32.744 25.6864 -0.01995
0.00152649 -0.00682599 0.0234514
-0.000539116 0.00674955 -0.0281638
-4.65521 3.69406 0.0208205
4.65464 -3.69441 -0.0288199
1.63617 -1.37392 0.0232376
-1.63756 1.37354 -0.03034
0.0502654 -0.078685 0.0226924
-0.0508893 0.077887 -0.0336788
-2.09608 1.69661 0.0243585
2.0944 -1.69744 -0.0334957
-0.71699 0.539604 0.0207839
0.71522 -0.541154 -0.0346603
0.0952147 -0.152468 0.0239054
-0.0974309 0.15106 -0.0345565
0.594982 -0.583586 0.0192616
-0.597224 0.581476 -0.0358233
-0.869313 0.698355 0.0227763
0.866958 -0.700112 -0.0347206
0.250273 -0.296356 0.0170835
-0.252833 0.293927 -0.0362953
0.0126831 -0.0827535 0.021479
-0.0152342 0.0808138 -0.0345761
3.98459 -3.72051 0.0150443
-3.98741 3.7179 -0.0368682
5.72395 -5.33937 0.0201389
-5.72671 5.33733 -0.0342451
2.20186 -2.01068 0.0131303
-2.20492 2.00798 -0.0374788
2.20026 -2.01002 0.0187896
-2.20321 2.00794 -0.0337819
-0.388999 0.516845 0.0113113
0.385719 -0.519565 -0.0380727
0.312455 -0.17966 0.017458
-0.315574 0.177588 -0.0332164
0.243818 -0.109701 0.00956864
-0.247302 0.107001 -0.0386195
0.856454 -0.73885 0.0161619
-0.859729 0.736817 -0.0325623
0.564861 -0.433867 0.00789204
-0.568529 0.431214 -0.039104
0.320346 -0.174953 0.014912
-0.323762 0.17298 -0.0318241
0.318454 -0.172248 0.00627701
-0.322288 0.169654 -0.0395188
0.792633 -0.694955 0.0137143
-0.796179 0.693058 -0.031001
1.25363 -1.21137 0.00472255
-1.25761 1.20885 -0.0398604
0.44501 -0.287822 0.0125717
-0.448676 0.286007 -0.0300895
0.403943 -0.239478 0.00323004
-0.408049 0.23702 -0.0401281
0.152309 0.0590119 0.0114846
-0.156091 -0.0607426 -0.029083
0.146982 0.0658495 0.00180313
-0.151191 -0.0682449 -0.0403247
0.910404 -0.878933 0.0104508
-0.914302 0.877284 -0.0279702
0.577043 -0.457626 0.000448422
-0.581329 0.45528 -0.0404589
1.11707 -1.15459 0.00946385
-1.12109 1.15302 -0.0267331
0.399676 -0.208586 -0.000822966
-0.404012 0.206272 -0.0405458
0.682463 -0.589745 0.00850808
-0.686604 0.588225 -0.0253442
-1.45439 2.35728 -0.00199903
1.45003 -2.35958 -0.0405974
2.50125 -3.22658 0.00751005
-2.50553 3.22507 -0.0237323
20.9327 -29.8754 -0.0032321
-20.9372 29.8731 -0.0404281
-16.8841 12.7427 0.00522683
-17.7131 13.3764 0.0100973
32.7435 -25.6869 0.0153695
0.00455701 -0.00925061 0.0234174
-4.65498 3.69395 0.021322
1.63651 -1.37384 0.0223738
0.0511689 -0.0791997 0.024502
-2.09594 1.69667 0.0225403
-0.716593 0.53978 0.0233927
0.0949208 -0.152156 0.0213298
0.595464 -0.583477 0.0227238
-0.86943 0.698558 0.0191831
0.250676 -0.296228 0.0213187
0.0125983 -0.0825727 0.0171384
3.98495 -3.7204 0.0198758
5.72387 -5.33919 0.015207
2.20221 -2.01059 0.0184517
2.20016 -2.00984 0.0133561
-0.388646 0.516912 0.0170716
0.312319 -0.179492 0.0115678
0.244182 -0.109652 0.0157467
0.856284 -0.73869 0.00983494
0.565238 -0.433834 0.0144825
0.320139 -0.174801 0.00815553
0.318848 -0.17223 0.0132817
0.792387 -0.69481 0.00652924
1.25405 -1.21137 0.0121465
0.44472 -0.287682 0.00495596
0.404381 -0.239498 0.0110799
0.151971 0.0591513 0.00343461
0.147452 0.065806 0.0100868
0.910011 -0.878791 0.00196144
0.577554 -0.457698 0.00917621
1.11661 -1.15444 0.000526674
0.400244 -0.208693 0.00836599
0.681914 -0.589584 -0.000893906
-1.45374 2.35713 0.0076832