# vtk DataFile Version 3.0
STAP++ Results
ASCII
DATASET UNSTRUCTURED_GRID
POINTS 1089 float
0 0 0
0.25 0 0
0.5 0 0
0.75 0 0
1 0 0
1.25 0 0
1.5 0 0
1.75 0 0
2 0 0
2.25 0 0
2.5 0 0
2.75 0 0
3 0 0
3.25 0 0
3.5 0 0
3.75 0 0
4 0 0
4.25 0 0
4.5 0 0
4.75 0 0
5 0 0
5.25 0 0
5.5 0 0
5.75 0 0
6 0 0
6.25 0 0
6.5 0 0
6.75 0 0
7 0 0
7.25 0 0
7.5 0 0
7.75 0 0
8 0 0
0 0.25 0
0.25 0.25 0
0.5 0.25 0
0.75 0.25 0
1 0.25 0
1.25 0.25 0
1.5 0.25 0
1.75 0.25 0
2 0.25 0
2.25 0.25 0
2.5 0.25 0
2.75 0.25 0
3 0.25 0
3.25 0.25 0
3.5 0.25 0
3.75 0.25 0
4 0.25 0
4.25 0.25 0
4.5 0.25 0
4.75 0.25 0
5 0.25 0
5.25 0.25 0
5.5 0.25 0
5.75 0.25 0
6 0.25 0
6.25 0.25 0
6.5 0.25 0
6.75 0.25 0
7 0.25 0
7.25 0.25 0
7.5 0.25 0
7.75 0.25 0
8 0.25 0
0 0.5 0
0.25 0.5 0
0.5 0.5 0
0.75 0.5 0
1 0.5 0
1.25 0.5 0
1.5 0.5 0
1.75 0.5 0
2 0.5 0
2.25 0.5 0
2.5 0.5 0
2.75 0.5 0
3 0.5 0
3.25 0.5 0
3.5 0.5 0
3.75 0.5 0
4 0.5 0
4.25 0.5 0
4.5 0.5 0
4.75 0.5 0
5 0.5 0
5.25 0.5 0
5.5 0.5 0
5.75 0.5 0
6 0.5 0
6.25 0.5 0
6.5 0.5 0
6.75 0.5 0
7 0.5 0
7.25 0.5 0
7.5 0.5 0
7.75 0.5 0
8 0.5 0
0 0.75 0
0.25 0.75 0
0.5 0.75 0
0.75 0.75 0
1 0.75 0
1.25 0.75 0
1.5 0.75 0
1.75 0.75 0
2 0.75 0
2.25 0.75 0
2.5 0.75 0
2.75 0.75 0
3 0.75 0
3.25 0.75 0
3.5 0.75 0
3.75 0.75 0
4 0.75 0
4.25 0.75 0
4.5 0.75 0
4.75 0.75 0
5 0.75 0
5.25 0.75 0
5.5 0.75 0
5.75 0.75 0
6 0.75 0
6.25 0.75 0
6.5 0.75 0
6.75 0.75 0
7 0.75 0
7.25 0.75 0
7.5 0.75 0
7.75 0.75 0
8 0.75 0
0 1 0
0.25 1 0
0.5 1 0
0.75 1 0
1 1 0
1.25 1 0
1.5 1 0
1.75 1 0
2 1 0
2.25 1 0
2.5 1 0
2.75 1 0
3 1 0
3.25 1 0
3.5 1 0
3.75 1 0
4 1 0
4.25 1 0
4.5 1 0
4.75 1 0
5 1 0
5.25 1 0
5.5 1 0
5.75 1 0
6 1 0
6.25 1 0
6.5 1 0
6.75 1 0
7 1 0
7.25 1 0
7.5 1 0
7.75 1 0
8 1 0
0 1.25 0
0.25 1.25 0
0.5 1.25 0
0.75 1.25 0
1 1.25 0
1.25 1.25 0
1.5 1.25 0
1.75 1.25 0
2 1.25 0
2.25 1.25 0
2.5 1.25 0
2.75 1.25 0
3 1.25 0
3.25 1.25 0
3.5 1.25 0
3.75 1.25 0
4 1.25 0
4.25 1.25 0
4.5 1.25 0
4.75 1.25 0
5 1.25 0
5.25 1.25 0
5.5 1.25 0
5.75 1.25 0
6 1.25 0
6.25 1.25 0
6.5 1.25 0
6.75 1.25 0
7 1.25 0
7.25 1.25 0
7.5 1.25 0
7.75 1.25 0
8 1.25 0
0 1.5 0
0.25 1.5 0
0.5 1.5 0
0.75 1.5 0
1 1.5 0
1.25 1.5 0
1.5 1.5 0
1.75 1.5 0
2 1.5 0
2.25 1.5 0
2.5 1.5 0
2.75 1.5 0
3 1.5 0
3.25 1.5 0
3.5 1.5 0
3.75 1.5 0
4 1.5 0
4.25 1.5 0
4.5 1.5 0
4.75 1.5 0
5 1.5 0
5.25 1.5 0
5.5 1.5 0
5.75 1.5 0
6 1.5 0
6.25 1.5 0
6.5 1.5 0
6.75 1.5 0
7 1.5 0
7.25 1.5 0
7.5 1.5 0
7.75 1.5 0
8 1.5 0
0 1.75 0
0.25 1.75 0
0.5 1.75 0
0.75 1.75 0
1 1.75 0
1.25 1.75 0
1.5 1.75 0
1.75 1.75 0
2 1.75 0
2.25 1.75 0
2.5 1.75 0
2.75 1.75 0
3 1.75 0
3.25 1.75 0
3.5 1.75 0
3.75 1.75 0
4 1.75 0
4.25 1.75 0
4.5 1.75 0
4.75 1.75 0
5 1.75 0
5.25 1.75 0
5.5 1.75 0
5.75 1.75 0
6 1.75 0
6.25 1.75 0
6.5 1.75 0
6.75 1.75 0
7 1.75 0
7.25 1.75 0
7.5 1.75 0
7.75 1.75 0
8 1.75 0
0 2 0
0.25 2 0
0.5 2 0
0.75 2 0
1 2 0
1.25 2 0
1.5 2 0
1.75 2 0
2 2 0
2.25 2 0
2.5 2 0
2.75 2 0
3 2 0
3.25 2 0
3.5 2 0
3.75 2 0
4 2 0
4.25 2 0
4.5 2 0
4.75 2 0
5 2 0
5.25 2 0
5.5 2 0
5.75 2 0
6 2 0
6.25 2 0
6.5 2 0
6.75 2 0
7 2 0
7.25 2 0
7.5 2 0
7.75 2 0
8 2 0
0 2.25 0
0.25 2.25 0
0.5 2.25 0
0.75 2.25 0
1 2.25 0
1.25 2.25 0
1.5 2.25 0
1.75 2.25 0
2 2.25 0
2.25 2.25 0
2.5 2.25 0
2.75 2.25 0
3 2.25 0
3.25 2.25 0
3.5 2.25 0
3.75 2.25 0
4 2.25 0
4.25 2.25 0
4.5 2.25 0
4.75 2.25 0
5 2.25 0
5.25 2.25 0
5.5 2.25 0
5.75 2.25 0
6 2.25 0
6.25 2.25 0
6.5 2.25 0
6.75 2.25 0
7 2.25 0
7.25 2.25 0
7.5 2.25 0
7.75 2.25 0
8 2.25 0
0 2.5 0
0.25 2.5 0
0.5 2.5 0
0.75 2.5 0
1 2.5 0
1.25 2.5 0
1.5 2.5 0
1.75 2.5 0
2 2.5 0
2.25 2.5 0
2.5 2.5 0
2.75 2.5 0
3 2.5 0
3.25 2.5 0
3.5 2.5 0
3.75 2.5 0
4 2.5 0
4.25 2.5 0
4.5 2.5 0
4.75 2.5 0
5 2.5 0
5.25 2.5 0
5.5 2.5 0
5.75 2.5 0
6 2.5 0
6.25 2.5 0
6.5 2.5 0
6.75 2.5 0
7 2.5 0
7.25 2.5 0
7.5 2.5 0
7.75 2.5 0
8 2.5 0
0 2.75 0
0.25 2.75 0
0.5 2.75 0
0.75 2.75 0
1 2.75 0
1.25 2.75 0
1.5 2.75 0
1.75 2.75 0
2 2.75 0
2.25 2.75 0
2.5 2.75 0
2.75 2.75 0
3 2.75 0
3.25 2.75 0
3.5 2.75 0
3.75 2.75 0
4 2.75 0
4.25 2.75 0
4.5 2.75 0
4.75 2.75 0
5 2.75 0
5.25 2.75 0
5.5 2.75 0
5.75 2.75 0
6 2.75 0
6.25 2.75 0
6.5 2.75 0
6.75 2.75 0
7 2.75 0
7.25 2.75 0
7.5 2.75 0
7.75 2.75 0
8 2.75 0
0 3 0
0.25 3 0
0.5 3 0
0.75 3 0
1 3 0
1.25 3 0
1.5 3 0
1.75 3 0
2 3 0
2.25 3 0
2.5 3 0
2.75 3 0
3 3 0
3.25 3 0
3.5 3 0
3.75 3 0
4 3 0
4.25 3 0
4.5 3 0
4.75 3 0
5 3 0
5.25 3 0
5.5 3 0
5.75 3 0
6 3 0
6.25 3 0
6.5 3 0
6.75 3 0
7 3 0
7.25 3 0
7.5 3 0
7.75 3 0
8 3 0
0 3.25 0
0.25 3.25 0
0.5 3.25 0
0.75 3.25 0
1 3.25 0
1.25 3.25 0
1.5 3.25 0
1.75 3.25 0
2 3.25 0
2.25 3.25 0
2.5 3.25 0
2.75 3.25 0
3 3.25 0
3.25 3.25 0
3.5 3.25 0
3.75 3.25 0
4 3.25 0
4.25 3.25 0
4.5 3.25 0
4.75 3.25 0
5 3.25 0
5.25 3.25 0
5.5 3.25 0
5.75 3.25 0
6 3.25 0
6.25 3.25 0
6.5 3.25 0
6.75 3.25 0
7 3.25 0
7.25 3.25 0
7.5 3.25 0
7.75 3.25 0
8 3.25 0
0 3.5 0
0.25 3.5 0
0.5 3.5 0
0.75 3.5 0
1 3.5 0
1.25 3.5 0
1.5 3.5 0
1.75 3.5 0
2 3.5 0
2.25 3.5 0
2.5 3.5 0
2.75 3.5 0
3 3.5 0
3.25 3.5 0
3.5 3.5 0
3.75 3.5 0
4 3.5 0
4.25 3.5 0
4.5 3.5 0
4.75 3.5 0
5 3.5 0
5.25 3.5 0
5.5 3.5 0
5.75 3.5 0
6 3.5 0
6.25 3.5 0
6.5 3.5 0
6.75 3.5 0
7 3.5 0
7.25 3.5 0
7.5 3.5 0
7.75 3.5 0
8 3.5 0
0 3.75 0
0.25 3.75 0
0.5 3.75 0
0.75 3.75 0
1 3.75 0
1.25 3.75 0
1.5 3.75 0
1.75 3.75 0
2 3.75 0
2.25 3.75 0
2.5 3.75 0
2.75 3.75 0
3 3.75 0
3.25 3.75 0
3.5 3.75 0
3.75 3.75 0
4 3.75 0
4.25 3.75 0
4.5 3.75 0
4.75 3.75 0
5 3.75 0
5.25 3.75 0
5.5 3.75 0
5.75 3.75 0
6 3.75 0
6.25 3.75 0
6.5 3.75 0
6.75 3.75 0
7 3.75 0
7.25 3.75 0
7.5 3.75 0
7.75 3.75 0
8 3.75 0
0 4 0
0.25 4 0
0.5 4 0
0.75 4 0
1 4 0
1.25 4 0
1.5 4 0
1.75 4 0
2 4 0
2.25 4 0
2.5 4 0
2.75 4 0
3 4 0
3.25 4 0
3.5 4 0
3.75 4 0
4 4 0
4.25 4 0
4.5 4 0
4.75 4 0
5 4 0
5.25 4 0
5.5 4 0
5.75 4 0
6 4 0
6.25 4 0
6.5 4 0
6.75 4 0
7 4 0
7.25 4 0
7.5 4 0
7.75 4 0
8 4 0
0 4.25 0
0.25 4.25 0
0.5 4.25 0
0.75 4.25 0
1 4.25 0
1.25 4.25 0
1.5 4.25 0
1.75 4.25 0
2 4.25 0
2.25 4.25 0
2.5 4.25 0
2.75 4.25 0
3 4.25 0
3.25 4.25 0
3.5 4.25 0
3.75 4.25 0
4 4.25 0
4.25 4.25 0
4.5 4.25 0
4.75 4.25 0
5 4.25 0
5.25 4.25 0
5.5 4.25 0
5.75 4.25 0
6 4.25 0
6.25 4.25 0
6.5 4.25 0
6.75 4.25 0
7 4.25 0
7.25 4.25 0
7.5 4.25 0
7.75 4.25 0
8 4.25 0
0 4.5 0
0.25 4.5 0
0.5 4.5 0
0.75 4.5 0
1 4.5 0
1.25 4.5 0
1.5 4.5 0
1.75 4.5 0
2 4.5 0
2.25 4.5 0
2.5 4.5 0
2.75 4.5 0
3 4.5 0
3.25 4.5 0
3.5 4.5 0
3.75 4.5 0
4 4.5 0
4.25 4.5 0
4.5 4.5 0
4.75 4.5 0
5 4.5 0
5.25 4.5 0
5.5 4.5 0
5.75 4.5 0
6 4.5 0
6.25 4.5 0
6.5 4.5 0
6.75 4.5 0
7 4.5 0
7.25 4.5 0
7.5 4.5 0
7.75 4.5 0
8 4.5 0
0 4.75 0
0.25 4.75 0
0.5 4.75 0
0.75 4.75 0
1 4.75 0
1.25 4.75 0
1.5 4.75 0
1.75 4.75 0
2 4.75 0
2.25 4.75 0
2.5 4.75 0
2.75 4.75 0
3 4.75 0
3.25 4.75 0
3.5 4.75 0
3.75 4.75 0
4 4.75 0
4.25 4.75 0
4.5 4.75 0
4.75 4.75 0
5 4.75 0
5.25 4.75 0
5.5 4.75 0
5.75 4.75 0
6 4.75 0
6.25 4.75 0
6.5 4.75 0
6.75 4.75 0
7 4.75 0
7.25 4.75 0
7.5 4.75 0
7.75 4.75 0
8 4.75 0
0 5 0
0.25 5 0
0.5 5 0
0.75 5 0
1 5 0
1.25 5 0
1.5 5 0
1.75 5 0
2 5 0
2.25 5 0
2.5 5 0
2.75 5 0
3 5 0
3.25 5 0
3.5 5 0
3.75 5 0
4 5 0
4.25 5 0
4.5 5 0
4.75 5 0
5 5 0
5.25 5 0
5.5 5 0
5.75 5 0
6 5 0
6.25 5 0
6.5 5 0
6.75 5 0
7 5 0
7.25 5 0
7.5 5 0
7.75 5 0
8 5 0
0 5.25 0
0.25 5.25 0
0.5 5.25 0
0.75 5.25 0
1 5.25 0
1.25 5.25 0
1.5 5.25 0
1.75 5.25 0
2 5.25 0
2.25 5.25 0
2.5 5.25 0
2.75 5.25 0
3 5.25 0
3.25 5.25 0
3.5 5.25 0
3.75 5.25 0
4 5.25 0
4.25 5.25 0
4.5 5.25 0
4.75 5.25 0
5 5.25 0
5.25 5.25 0
5.5 5.25 0
5.75 5.25 0
6 5.25 0
6.25 5.25 0
6.5 5.25 0
6.75 5.25 0
7 5.25 0
7.25 5.25 0
7.5 5.25 0
7.75 5.25 0
8 5.25 0
0 5.5 0
0.25 5.5 0
0.5 5.5 0
0.75 5.5 0
1 5.5 0
1.25 5.5 0
1.5 5.5 0
1.75 5.5 0
2 5.5 0
2.25 5.5 0
2.5 5.5 0
2.75 5.5 0
3 5.5 0
3.25 5.5 0
3.5 5.5 0
3.75 5.5 0
4 5.5 0
4.25 5.5 0
4.5 5.5 0
4.75 5.5 0
5 5.5 0
5.25 5.5 0
5.5 5.5 0
5.75 5.5 0
6 5.5 0
6.25 5.5 0
6.5 5.5 0
6.75 5.5 0
7 5.5 0
7.25 5.5 0
7.5 5.5 0
7.75 5.5 0
8 5.5 0
0 5.75 0
0.25 5.75 0
0.5 5.75 0
0.75 5.75 0
1 5.75 0
1.25 5.75 0
1.5 5.75 0
1.75 5.75 0
2 5.75 0
2.25 5.75 0
2.5 5.75 0
2.75 5.75 0
3 5.75 0
3.25 5.75 0
3.5 5.75 0
3.75 5.75 0
4 5.75 0
4.25 5.75 0
4.5 5.75 0
4.75 5.75 0
5 5.75 0
5.25 5.75 0
5.5 5.75 0
5.75 5.75 0
6 5.75 0
6.25 5.75 0
6.5 5.75 0
6.75 5.75 0
7 5.75 0
7.25 5.75 0
7.5 5.75 0
7.75 5.75 0
8 5.75 0
0 6 0
0.25 6 0
0.5 6 0
0.75 6 0
1 6 0
1.25 6 0
1.5 6 0
1.75 6 0
2 6 0
2.25 6 0
2.5 6 0
2.75 6 0
3 6 0
3.25 6 0
3.5 6 0
3.75 6 0
4 6 0
4.25 6 0
4.5 6 0
4.75 6 0
5 6 0
5.25 6 0
5.5 6 0
5.75 6 0
6 6 0
6.25 6 0
6.5 6 0
6.75 6 0
7 6 0
7.25 6 0
7.5 6 0
7.75 6 0
8 6 0
0 6.25 0
0.25 6.25 0
0.5 6.25 0
0.75 6.25 0
1 6.25 0
1.25 6.25 0
1.5 6.25 0
1.75 6.25 0
2 6.25 0
2.25 6.25 0
2.5 6.25 0
2.75 6.25 0
3 6.25 0
3.25 6.25 0
3.5 6.25 0
3.75 6.25 0
4 6.25 0
4.25 6.25 0
4.5 6.25 0
4.75 6.25 0
5 6.25 0
5.25 6.25 0
5.5 6.25 0
5.75 6.25 0
6 6.25 0
6.25 6.25 0
6.5 6.25 0
6.75 6.25 0
7 6.25 0
7.25 6.25 0
7.5 6.25 0
7.75 6.25 0
8 6.25 0
0 6.5 0
0.25 6.5 0
0.5 6.5 0
0.75 6.5 0
1 6.5 0
1.25 6.5 0
1.5 6.5 0
1.75 6.5 0
2 6.5 0
2.25 6.5 0
2.5 6.5 0
2.75 6.5 0
3 6.5 0
3.25 6.5 0
3.5 6.5 0
3.75 6.5 0
4 6.5 0
4.25 6.5 0
4.5 6.5 0
4.75 6.5 0
5 6.5 0
5.25 6.5 0
5.5 6.5 0
5.75 6.5 0
6 6.5 0
6.25 6.5 0
6.5 6.5 0
6.75 6.5 0
7 6.5 0
7.25 6.5 0
7.5 6.5 0
7.75 6.5 0
8 6.5 0
0 6.75 0
0.25 6.75 0
0.5 6.75 0
0.75 6.75 0
1 6.75 0
1.25 6.75 0
1.5 6.75 0
1.75 6.75 0
2 6.75 0
2.25 6.75 0
2.5 6.75 0
2.75 6.75 0
3 6.75 0
3.25 6.75 0
3.5 6.75 0
3.75 6.75 0
4 6.75 0
4.25 6.75 0
4.5 6.75 0
4.75 6.75 0
5 6.75 0
5.25 6.75 0
5.5 6.75 0
5.75 6.75 0
6 6.75 0
6.25 6.75 0
6.5 6.75 0
6.75 6.75 0
7 6.75 0
7.25 6.75 0
7.5 6.75 0
7.75 6.75 0
8 6.75 0
0 7 0
0.25 7 0
0.5 7 0
0.75 7 0
1 7 0
1.25 7 0
1.5 7 0
1.75 7 0
2 7 0
2.25 7 0
2.5 7 0
2.75 7 0
3 7 0
3.25 7 0
3.5 7 0
3.75 7 0
4 7 0
4.25 7 0
4.5 7 0
4.75 7 0
5 7 0
5.25 7 0
5.5 7 0
5.75 7 0
6 7 0
6.25 7 0
6.5 7 0
6.75 7 0
7 7 0
7.25 7 0
7.5 7 0
7.75 7 0
8 7 0
0 7.25 0
0.25 7.25 0
0.5 7.25 0
0.75 7.25 0
1 7.25 0
1.25 7.25 0
1.5 7.25 0
1.75 7.25 0
2 7.25 0
2.25 7.25 0
2.5 7.25 0
2.75 7.25 0
3 7.25 0
3.25 7.25 0
3.5 7.25 0
3.75 7.25 0
4 7.25 0
4.25 7.25 0
4.5 7.25 0
4.75 7.25 0
5 7.25 0
5.25 7.25 0
5.5 7.25 0
5.75 7.25 0
6 7.25 0
6.25 7.25 0
6.5 7.25 0
6.75 7.25 0
7 7.25 0
7.25 7.25 0
7.5 7.25 0
7.75 7.25 0
8 7.25 0
0 7.5 0
0.25 7.5 0
0.5 7.5 0
0.75 7.5 0
1 7.5 0
1.25 7.5 0
1.5 7.5 0
1.75 7.5 0
2 7.5 0
2.25 7.5 0
[...]
POINT_DATA 1089
VECTORS Displacement float
0 0 0
0 0 0
0 0 0
0 0 0
0 0 0
0 0 0
0 0 0
0 0 0
0 0 0
0 0 0
0 0 0
0 0 0
0 0 0
0 0 0
0 0 0
0 0 0
0 0 0
0 0 0
0 0 0
0 0 0
0 0 0
0 0 0
0 0 0
0 0 0
0 0 0
0 0 0
0 0 0
0 0 0
0 0 0
0 0 0
0 0 0
0 0 0
0 0 0
0 0 0
0 0 -7.68172e-08
0 0 -3.14302e-07
0 0 -6.86643e-07
0 0 -1.13791e-06
0 0 -1.62705e-06
0 0 -2.12411e-06
0 0 -2.60798e-06
0 0 -3.06364e-06
0 0 -3.48058e-06
0 0 -3.8514e-06
0 0 -4.17102e-06
0 0 -4.43596e-06
0 0 -4.64388e-06
0 0 -4.79328e-06
0 0 -4.88325e-06
0 0 -4.9133e-06
0 0 -4.88325e-06
0 0 -4.79328e-06
0 0 -4.64388e-06
0 0 -4.43596e-06
0 0 -4.17102e-06
0 0 -3.8514e-06
0 0 -3.48058e-06
0 0 -3.06364e-06
0 0 -2.60798e-06
0 0 -2.12411e-06
0 0 -1.62705e-06
0 0 -1.13791e-06
0 0 -6.86643e-07
0 0 -3.14302e-07
0 0 -7.68172e-08
0 0 0
0 0 0
0 0 -3.14302e-07
0 0 -1.22115e-06
0 0 -2.59149e-06
0 0 -4.25081e-06
0 0 -6.05543e-06
0 0 -7.89765e-06
0 0 -9.69843e-06
0 0 -1.14006e-05
0 0 -1.29629e-05
0 0 -1.43561e-05
0 0 -1.55594e-05
0 0 -1.65586e-05
0 0 -1.73438e-05
0 0 -1.79086e-05
0 0 -1.82489e-05
0 0 -1.83626e-05
0 0 -1.82489e-05
0 0 -1.79086e-05
0 0 -1.73438e-05
0 0 -1.65586e-05
0 0 -1.55594e-05
0 0 -1.43561e-05
0 0 -1.29629e-05
0 0 -1.14006e-05
0 0 -9.69843e-06
0 0 -7.89765e-06
0 0 -6.05543e-06
0 0 -4.25081e-06
0 0 -2.59149e-06
0 0 -1.22115e-06
0 0 -3.14302e-07
0 0 0
0 0 0
0 0 -6.86643e-07
0 0 -2.59149e-06
0 0 -5.39265e-06
0 0 -8.77162e-06
0 0 -1.24562e-05
0 0 -1.62332e-05
0 0 -1.9941e-05
0 0 -2.34595e-05
0 0 -2.67001e-05
0 0 -2.95982e-05
0 0 -3.21075e-05
0 0 -3.41951e-05
0 0 -3.58382e-05
0 0 -3.70214e-05
0 0 -3.77349e-05
0 0 -3.79733e-05
0 0 -3.77349e-05
0 0 -3.70214e-05
0 0 -3.58382e-05
0 0 -3.41951e-05
0 0 -3.21075e-05
0 0 -2.95982e-05
0 0 -2.67001e-05
0 0 -2.34595e-05
0 0 -1.9941e-05
0 0 -1.62332e-05
0 0 -1.24562e-05
0 0 -8.77162e-06
0 0 -5.39265e-06
0 0 -2.59149e-06
0 0 -6.86643e-07
0 0 0
0 0 0
0 0 -1.13791e-06
0 0 -4.25081e-06
0 0 -8.77162e-06
0 0 -1.42057e-05
0 0 -2.01389e-05
0 0 -2.62391e-05
0 0 -3.22481e-05
0 0 -3.79691e-05
0 0 -4.32538e-05
0 0 -4.79925e-05
0 0 -5.21045e-05
0 0 -5.55317e-05
0 0 -5.8233e-05
0 0 -6.01802e-05
0 0 -6.13552e-05
0 0 -6.17479e-05
0 0 -6.13552e-05
0 0 -6.01802e-05
0 0 -5.8233e-05
0 0 -5.55317e-05
0 0 -5.21045e-05
0 0 -4.79925e-05
0 0 -4.32538e-05
0 0 -3.79691e-05
0 0 -3.22481e-05
0 0 -2.62391e-05
0 0 -2.01389e-05
0 0 -1.42057e-05
0 0 -8.77162e-06
0 0 -4.25081e-06
0 0 -1.13791e-06
0 0 0
0 0 0
0 0 -1.62705e-06
0 0 -6.05543e-06
0 0 -1.24562e-05
0 0 -2.01389e-05
0 0 -2.85354e-05
0 0 -3.71873e-05
0 0 -4.57327e-05
0 0 -5.38902e-05
0 0 -6.14448e-05
0 0 -6.82338e-05
0 0 -7.41364e-05
0 0 -7.90638e-05
0 0 -8.29524e-05
0 0 -8.57581e-05
0 0 -8.74523e-05
0 0 -8.80187e-05
0 0 -8.74523e-05
0 0 -8.57581e-05
0 0 -8.29524e-05
0 0 -7.90638e-05
0 0 -7.41364e-05
0 0 -6.82338e-05
0 0 -6.14448e-05
0 0 -5.38902e-05
0 0 -4.57327e-05
0 0 -3.71873e-05
0 0 -2.85354e-05
0 0 -2.01389e-05
0 0 -1.24562e-05
0 0 -6.05543e-06
0 0 -1.62705e-06
0 0 0
0 0 0
0 0 -2.12411e-06
0 0 -7.89765e-06
0 0 -1.62332e-05
0 0 -2.62391e-05
0 0 -3.71873e-05
0 0 -4.84895e-05
0 0 -5.96764e-05
0 0 -7.0379e-05
0 0 -8.03112e-05
0 0 -8.92539e-05
0 0 -9.70416e-05
0 0 -0.000103552
0 0 -0.000108695
0 0 -0.000112409
0 0 -0.000114653
0 0 -0.000115404
0 0 -0.000114653
0 0 -0.000112409
0 0 -0.000108695
0 0 -0.000103552
0 0 -9.70416e-05
0 0 -8.92539e-05
0 0 -8.03112e-05
0 0 -7.0379e-05
0 0 -5.96764e-05
0 0 -4.84895e-05
0 0 -3.71873e-05
0 0 -2.62391e-05
0 0 -1.62332e-05
0 0 -7.89765e-06
0 0 -2.12411e-06
0 0 0
0 0 0
0 0 -2.60798e-06
0 0 -9.69843e-06
0 0 -1.9941e-05
0 0 -3.22481e-05
0 0 -4.57327e-05
0 0 -5.96764e-05
0 0 -7.35029e-05
0 0 -8.67551e-05
0 0 -9.90748e-05
0 0 -0.000110185
0 0 -0.000119873
0 0 -0.000127982
0 0 -0.000134394
0 0 -0.000139028
0 0 -0.000141829
0 0 -0.000142766
0 0 -0.000141829
0 0 -0.000139028
0 0 -0.000134394
0 0 -0.000127982
0 0 -0.000119873
0 0 -0.000110185
0 0 -9.90748e-05
0 0 -8.67551e-05
0 0 -7.35029e-05
0 0 -5.96764e-05
0 0 -4.57327e-05
0 0 -3.22481e-05
0 0 -1.9941e-05
0 0 -9.69843e-06
0 0 -2.60798e-06
0 0 0
0 0 0
0 0 -3.06364e-06
0 0 -1.14006e-05
0 0 -2.34595e-05
0 0 -3.79691e-05
0 0 -5.38902e-05
0 0 -7.0379e-05
0 0 -8.67551e-05
0 0 -0.000102475
0 0 -0.000117111
0 0 -0.000130327
0 0 -0.000141865
0 0 -0.000151532
0 0 -0.000159183
0 0 -0.000164715
0 0 -0.00016806
0 0 -0.00016918
0 0 -0.00016806
0 0 -0.000164715
0 0 -0.000159183
0 0 -0.000151532
0 0 -0.000141865
0 0 -0.000130327
0 0 -0.000117111
0 0 -0.000102475
0 0 -8.67551e-05
0 0 -7.0379e-05
0 0 -5.38902e-05
0 0 -3.79691e-05
0 0 -2.34595e-05
0 0 -1.14006e-05
0 0 -3.06364e-06
0 0 0
0 0 0
0 0 -3.48058e-06
0 0 -1.29629e-05
0 0 -2.67001e-05
0 0 -4.32538e-05
0 0 -6.14448e-05
0 0 -8.03112e-05
0 0 -9.90748e-05
0 0 -0.000117111
0 0 -0.000133923
0 0 -0.000149122
0 0 -0.000162405
0 0 -0.000173542
0 0 -0.000182363
0 0 -0.000188744
0 0 -0.000192604
0 0 -0.000193896
0 0 -0.000192604
0 0 -0.000188744
0 0 -0.000182363
0 0 -0.000173542
0 0 -0.000162405
0 0 -0.000149122
0 0 -0.000133923
0 0 -0.000117111
0 0 -9.90748e-05
0 0 -8.03112e-05
0 0 -6.14448e-05
0 0 -4.32538e-05
0 0 -2.67001e-05
0 0 -1.29629e-05
0 0 -3.48058e-06
0 0 0
0 0 0
0 0 -3.8514e-06
0 0 -1.43561e-05
0 0 -2.95982e-05
0 0 -4.79925e-05
0 0 -6.82338e-05
0 0 -8.92539e-05
0 0 -0.000110185
0 0 -0.000130327
0 0 -0.000149122
0 0 -0.000166129
0 0 -0.000181004
0 0 -0.000193486
0 0 -0.000203377
0 0 -0.000210536
0 0 -0.000214867
0 0 -0.000216317
0 0 -0.000214867
0 0 -0.000210536
0 0 -0.000203377
0 0 -0.000193486
0 0 -0.000181004
0 0 -0.000166129
0 0 -0.000149122
0 0 -0.000130327
0 0 -0.000110185
0 0 -8.92539e-05
0 0 -6.82338e-05
0 0 -4.79925e-05
0 0 -2.95982e-05
0 0 -1.43561e-05
0 0 -3.8514e-06
0 0 0
0 0 0
0 0 -4.17102e-06
0 0 -1.55594e-05
0 0 -3.21075e-05
0 0 -5.21045e-05
0 0 -7.41364e-05
0 0 -9.70416e-05
0 0 -0.000119873
0 0 -0.000141865
0 0 -0.000162405
0 0 -0.000181004
0 0 -0.000197284
0 0 -0.000210952
0 0 -0.000221788
0 0 -0.000229633
0 0 -0.000234381
0 0 -0.000235971
0 0 -0.000234381
0 0 -0.000229633
0 0 -0.000221788
0 0 -0.000210952
0 0 -0.000197284
0 0 -0.000181004
0 0 -0.000162405
0 0 -0.000141865
0 0 -0.000119873
0 0 -9.70416e-05
0 0 -7.41364e-05
0 0 -5.21045e-05
0 0 -3.21075e-05
0 0 -1.55594e-05
0 0 -4.17102e-06
0 0 0
0 0 0
0 0 -4.43596e-06
0 0 -1.65586e-05
0 0 -3.41951e-05
0 0 -5.55317e-05
0 0 -7.90638e-05
0 0 -0.000103552
0 0 -0.000127982
0 0 -0.000151532
0 0 -0.000173542
0 0 -0.000193486
0 0 -0.000210952
0 0 -0.000225622
0 0 -0.000237257
0 0 -0.000245683
0 0 -0.000250784
0 0 -0.000252491
0 0 -0.000250784
0 0 -0.000245683
0 0 -0.000237257
0 0 -0.000225622
0 0 -0.000210952
0 0 -0.000193486
0 0 -0.000173542
0 0 -0.000151532
0 0 -0.000127982
0 0 -0.000103552
0 0 -7.90638e-05
0 0 -5.55317e-05
0 0 -3.41951e-05
0 0 -1.65586e-05
0 0 -4.43596e-06
0 0 0
0 0 0
0 0 -4.64388e-06
0 0 -1.73438e-05
0 0 -3.58382e-05
0 0 -5.8233e-05
0 0 -8.29524e-05
0 0 -0.000108695
0 0 -0.000134394
0 0 -0.000159183
0 0 -0.000182363
0 0 -0.000203377
0 0 -0.000221788
0 0 -0.000237257
0 0 -0.000249529
0 0 -0.000258419
0 0 -0.000263801
0 0 -0.000265602
0 0 -0.000263801
0 0 -0.000258419
0 0 -0.000249529
0 0 -0.000237257
0 0 -0.000221788
0 0 -0.000203377
0 0 -0.000182363
0 0 -0.000159183
0 0 -0.000134394
0 0 -0.000108695
0 0 -8.29524e-05
0 0 -5.8233e-05
0 0 -3.58382e-05
0 0 -1.73438e-05
0 0 -4.64388e-06
0 0 0
0 0 0
0 0 -4.79328e-06
0 0 -1.79086e-05
0 0 -3.70214e-05
0 0 -6.01802e-05
0 0 -8.57581e-05
0 0 -0.000112409
0 0 -0.000139028
0 0 -0.000164715
0 0 -0.000188744
0 0 -0.000210536
0 0 -0.000229633
0 0 -0.000245683
0 0 -0.000258419
0 0 -0.000267645
0 0 -0.000273232
0 0 -0.000275102
0 0 -0.000273232
0 0 -0.000267645
0 0 -0.000258419
0 0 -0.000245683
0 0 -0.000229633
0 0 -0.000210536
0 0 -0.000188744
0 0 -0.000164715
0 0 -0.000139028
0 0 -0.000112409
0 0 -8.57581e-05
0 0 -6.01802e-05
0 0 -3.70214e-05
0 0 -1.79086e-05
0 0 -4.79328e-06
0 0 0
0 0 0
0 0 -4.88325e-06
0 0 -1.82489e-05
0 0 -3.77349e-05
0 0 -6.13552e-05
0 0 -8.74523e-05
0 0 -0.000114653
0 0 -0.000141829
0 0 -0.00016806
0 0 -0.000192604
0 0 -0.000214867
0 0 -0.000234381
0 0 -0.000250784
0 0 -0.000263801
0 0 -0.000273232
0 0 -0.000278943
0 0 -0.000280855
0 0 -0.000278943
0 0 -0.000273232
0 0 -0.000263801
0 0 -0.000250784
0 0 -0.000234381
0 0 -0.000214867
0 0 -0.000192604
0 0 -0.00016806
0 0 -0.000141829
0 0 -0.000114653
0 0 -8.74523e-05
0 0 -6.13552e-05
0 0 -3.77349e-05
0 0 -1.82489e-05
0 0 -4.88325e-06
0 0 0
0 0 0
0 0 -4.9133e-06
0 0 -1.83626e-05
0 0 -3.79733e-05
0 0 -6.17479e-05
0 0 -8.80187e-05
0 0 -0.000115404
0 0 -0.000142766
0 0 -0.00016918
0 0 -0.000193896
0 0 -0.000216317
0 0 -0.000235971
0 0 -0.000252491
0 0 -0.000265602
0 0 -0.000275102
0 0 -0.000280855
0 0 -0.000282781
0 0 -0.000280855
0 0 -0.000275102
0 0 -0.000265602
0 0 -0.000252491
0 0 -0.000235971
0 0 -0.000216317
0 0 -0.000193896
0 0 -0.00016918
0 0 -0.000142766
0 0 -0.000115404
0 0 -8.80187e-05
0 0 -6.17479e-05
0 0 -3.79733e-05
0 0 -1.83626e-05
0 0 -4.9133e-06
0 0 0
0 0 0
0 0 -4.88325e-06
0 0 -1.82489e-05
0 0 -3.77349e-05
0 0 -6.13552e-05
0 0 -8.74523e-05
0 0 -0.000114653
0 0 -0.000141829
0 0 -0.00016806
0 0 -0.000192604
0 0 -0.000214867
0 0 -0.000234381
0 0 -0.000250784
0 0 -0.000263801
0 0 -0.000273232
0 0 -0.000278943
0 0 -0.000280855
0 0 -0.000278943
0 0 -0.000273232
0 0 -0.000263801
0 0 -0.000250784
0 0 -0.000234381
0 0 -0.000214867
0 0 -0.000192604
0 0 -0.00016806
0 0 -0.000141829
0 0 -0.000114653
0 0 -8.74523e-05
0 0 -6.13552e-05
0 0 -3.77349e-05
0 0 -1.82489e-05
0 0 -4.88325e-06
0 0 0
0 0 0
0 0 -4.79328e-06
0 0 -1.79086e-05
0 0 -3.70214e-05
0 0 -6.01802e-05
0 0 -8.57581e-05
0 0 -0.000112409
0 0 -0.000139028
0 0 -0.000164715
0 0 -0.000188744
0 0 -0.000210536
0 0 -0.000229633
0 0 -0.000245683
0 0 -0.000258419
0 0 -0.000267645
0 0 -0.000273232
0 0 -0.000275102
0 0 -0.000273232
0 0 -0.000267645
0 0 -0.000258419
0 0 -0.000245683
0 0 -0.000229633
0 0 -0.000210536
0 0 -0.000188744
0 0 -0.000164715
0 0 -0.000139028
0 0 -0.000112409
0 0 -8.57581e-05
0 0 -6.01802e-05
0 0 -3.70214e-05
0 0 -1.79086e-05
0 0 -4.79328e-06
0 0 0
0 0 0
0 0 -4.64388e-06
0 0 -1.73438e-05
0 0 -3.58382e-05
0 0 -5.8233e-05
0 0 -8.29524e-05
0 0 -0.000108695
0 0 -0.000134394
0 0 -0.000159183
0 0 -0.000182363
0 0 -0.000203377
0 0 -0.000221788
0 0 -0.000237257
0 0 -0.000249529
0 0 -0.000258419
0 0 -0.000263801
0 0 -0.000265602
0 0 -0.000263801
0 0 -0.000258419
0 0 -0.000249529
0 0 -0.000237257
0 0 -0.000221788
0 0 -0.000203377
0 0 -0.000182363
0 0 -0.000159183
0 0 -0.000134394
0 0 -0.000108695
0 0 -8.29524e-05
0 0 -5.8233e-05
0 0 -3.58382e-05
0 0 -1.73438e-05
0 0 -4.64388e-06
0 0 0
0 0 0
0 0 -4.43596e-06
0 0 -1.65586e-05
0 0 -3.41951e-05
0 0 -5.55317e-05
0 0 -7.90638e-05
0 0 -0.000103552
0 0 -0.000127982
0 0 -0.000151532
0 0 -0.000173542
0 0 -0.000193486
0 0 -0.000210952
0 0 -0.000225622
0 0 -0.000237257
0 0 -0.000245683
0 0 -0.000250784
0 0 -0.000252491
0 0 -0.000250784
0 0 -0.000245683
0 0 -0.000237257
0 0 -0.000225622
0 0 -0.000210952
0 0 -0.000193486
0 0 -0.000173542
0 0 -0.000151532
0 0 -0.000127982
0 0 -0.000103552
0 0 -7.90638e-05
0 0 -5.55317e-05
0 0 -3.41951e-05
0 0 -1.65586e-05
0 0 -4.43596e-06
0 0 0
0 0 0
0 0 -4.17102e-06
0 0 -1.55594e-05
0 0 -3.21075e-05
0 0 -5.21045e-05
0 0 -7.41364e-05
0 0 -9.70416e-05
0 0 -0.000119873
0 0 -0.000141865
0 0 -0.000162405
0 0 -0.000181004
0 0 -0.000197284
0 0 -0.000210952
0 0 -0.000221788
0 0 -0.000229633
0 0 -0.000234381
0 0 -0.000235971
0 0 -0.000234381
0 0 -0.000229633
0 0 -0.000221788
0 0 -0.000210952
0 0 -0.000197284
0 0 -0.000181004
0 0 -0.000162405
0 0 -0.000141865
0 0 -0.000119873
0 0 -9.70416e-05
0 0 -7.41364e-05
0 0 -5.21045e-05
0 0 -3.21075e-05
0 0 -1.55594e-05
0 0 -4.17102e-06
0 0 0
0 0 0
0 0 -3.8514e-06
0 0 -1.43561e-05
0 0 -2.95982e-05
0 0 -4.79925e-05
0 0 -6.82338e-05
0 0 -8.92539e-05
0 0 -0.000110185
0 0 -0.000130327
0 0 -0.000149122
0 0 -0.000166129
0 0 -0.000181004
0 0 -0.000193486
0 0 -0.000203377
0 0 -0.000210536
0 0 -0.000214867
0 0 -0.000216317
0 0 -0.000214867
0 0 -0.000210536
0 0 -0.000203377
0 0 -0.000193486
0 0 -0.000181004
0 0 -0.000166129
0 0 -0.000149122
0 0 -0.000130327
0 0 -0.000110185
0 0 -8.92539e-05
0 0 -6.82338e-05
0 0 -4.79925e-05
0 0 -2.95982e-05
0 0 -1.43561e-05
0 0 -3.8514e-06
0 0 0
0 0 0
0 0 -3.48058e-06
0 0 -1.29629e-05
0 0 -2.67001e-05
0 0 -4.32538e-05
0 0 -6.14448e-05
0 0 -8.03112e-05
0 0 -9.90748e-05
0 0 -0.000117111
0 0 -0.000133923
0 0 -0.000149122
0 0 -0.000162405
0 0 -0.000173542
0 0 -0.000182363
0 0 -0.000188744
0 0 -0.000192604
0 0 -0.000193896
0 0 -0.000192604
0 0 -0.000188744
0 0 -0.000182363
0 0 -0.000173542
0 0 -0.000162405
0 0 -0.000149122
0 0 -0.000133923
0 0 -0.000117111
0 0 -9.90748e-05
0 0 -8.03112e-05
0 0 -6.14448e-05
0 0 -4.32538e-05
0 0 -2.67001e-05
0 0 -1.29629e-05
0 0 -3.48058e-06
0 0 0
0 0 0
0 0 -3.06364e-06
0 0 -1.14006e-05
0 0 -2.34595e-05
0 0 -3.79691e-05
0 0 -5.38902e-05
0 0 -7.0379e-05
0 0 -8.67551e-05
0 0 -0.000102475
0 0 -0.000117111
0 0 -0.000130327
0 0 -0.000141865
0 0 -0.000151532
0 0 -0.000159183
0 0 -0.000164715
0 0 -0.00016806
0 0 -0.00016918
0 0 -0.00016806
0 0 -0.000164715
0 0 -0.000159183
0 0 -0.000151532
0 0 -0.000141865
0 0 -0.000130327
0 0 -0.000117111
0 0 -0.000102475
0 0 -8.67551e-05
0 0 -7.0379e-05
0 0 -5.38902e-05
0 0 -3.79691e-05
0 0 -2.34595e-05
0 0 -1.14006e-05
0 0 -3.06364e-06
0 0 0
0 0 0
0 0 -2.60798e-06
0 0 -9.69843e-06
0 0 -1.9941e-05
0 0 -3.22481e-05
0 0 -4.57327e-05
0 0 -5.96764e-05
0 0 -7.35029e-05
0 0 -8.67551e-05
0 0 -9.90748e-05
0 0 -0.000110185
0 0 -0.000119873
0 0 -0.000127982
0 0 -0.000134394
0 0 -0.000139028
0 0 -0.000141829
0 0 -0.000142766
0 0 -0.000141829
0 0 -0.000139028
0 0 -0.000134394
0 0 -0.000127982
0 0 -0.000119873
0 0 -0.000110185
0 0 -9.90748e-05
0 0 -8.67551e-05
0 0 -7.35029e-05
0 0 -5.96764e-05
0 0 -4.57327e-05
0 0 -3.22481e-05
0 0 -1.9941e-05
0 0 -9.69843e-06
0 0 -2.60798e-06
0 0 0
0 0 0
0 0 -2.12411e-06
0 0 -7.89765e-06
0 0 -1.62332e-05
0 0 -2.62391e-05
0 0 -3.71873e-05
0 0 -4.84895e-05
0 0 -5.96764e-05
0 0 -7.0379e-05
0 0 -8.03112e-05
0 0 -8.92539e-05
0 0 -9.70416e-05
0 0 -0.000103552
0 0 -0.000108695
0 0 -0.000112409
0 0 -0.000114653
0 0 -0.000115404
0 0 -0.000114653
0 0 -0.000112409
0 0 -0.000108695
0 0 -0.000103552
0 0 -9.70416e-05
0 0 -8.92539e-05
0 0 -8.03112e-05
0 0 -7.0379e-05
0 0 -5.96764e-05
0 0 -4.84895e-05
0 0 -3.71873e-05
0 0 -2.62391e-05
0 0 -1.62332e-05
0 0 -7.89765e-06
0 0 -2.12411e-06
0 0 0
0 0 0
0 0 -1.62705e-06
0 0 -6.05543e-06
0 0 -1.24562e-05
0 0 -2.01389e-05
0 0 -2.85354e-05
0 0 -3.71873e-05
0 0 -4.57327e-05
0 0 -5.38902e-05
0 0 -6.14448e-05
0 0 -6.82338e-05
0 0 -7.41364e-05
0 0 -7.90638e-05
0 0 -8.29524e-05
0 0 -8.57581e-05
0 0 -8.74523e-05
0 0 -8.80187e-05
0 0 -8.74523e-05
0 0 -8.57581e-05
0 0 -8.29524e-05
0 0 -7.90638e-05
0 0 -7.41364e-05
0 0 -6.82338e-05
0 0 -6.14448e-05
0 0 -5.38902e-05
0 0 -4.57327e-05
0 0 -3.71873e-05
0 0 -2.85354e-05
0 0 -2.01389e-05
0 0 -1.24562e-05
0 0 -6.05543e-06
0 0 -1.62705e-06
0 0 0
0 0 0
0 0 -1.13791e-06
0 0 -4.25081e-06
0 0 -8.77162e-06
0 0 -1.42057e-05
0 0 -2.01389e-05
0 0 -2.62391e-05
0 0 -3.22481e-05
0 0 -3.79691e-05
0 0 -4.32538e-05
0 0 -4.79925e-05
0 0 -5.21045e-05
0 0 -5.55317e-05
0 0 -5.8233e-05
0 0 -6.01802e-05
0 0 -6.13552e-05
0 0 -6.17479e-05
0 0 -6.13552e-05
0 0 -6.01802e-05
0 0 -5.8233e-05
0 0 -5.55317e-05
0 0 -5.21045e-05
0 0 -4.79925e-05
0 0 -4.32538e-05
0 0 -3.79691e-05
0 0 -3.22481e-05
0 0 -2.62391e-05
0 0 -2.01389e-05
0 0 -1.42057e-05
0 0 -8.77162e-06
0 0 -4.25081e-06
0 0 -1.13791e-06
0 0 0
0 0 0
0 0 -6.86643e-07
0 0 -2.59149e-06
0 0 -5.39265e-06
0 0 -8.77162e-06
0 0 -1.24562e-05
0 0 -1.62332e-05
0 0 -1.9941e-05
0 0 -2.34595e-05
0 0 -2.67001e-05
0 0 -2.95982e-05
0 0 -3.21075e-05
0 0 -3.41951e-05
0 0 -3.58382e-05
0 0 -3.70214e-05
0 0 -3.77349e-05
0 0 -3.79733e-05
0 0 -3.77349e-05
0 0 -3.70214e-05
0 0 -3.58382e-05
0 0 -3.41951e-05
0 0 -3.21075e-05
0 0 -2.95982e-05
0 0 -2.67001e-05
0 0 -2.34595e-05
0 0 -1.9941e-05
0 0 -1.62332e-05
0 0 -1.24562e-05
0 0 -8.77162e-06
0 0 -5.39265e-06
0 0 -2.59149e-06
0 0 -6.86643e-07
0 0 0
0 0 0
0 0 -3.14302e-07
0 0 -1.22115e-06
0 0 -2.59149e-06
0 0 -4.25081e-06
0 0 -6.05543e-06
0 0 -7.89765e-06
0 0 -9.69843e-06
0 0 -1.14006e-05
0 0 -1.29629e-05
0 0 -1.43561e-05
0 0 -1.55594e-05
0 0 -1.65586e-05
0 0 -1.73438e-05
0 0 -1.79086e-05
0 0 -1.82489e-05
0 0 -1.83626e-05
0 0 -1.82489e-05
0 0 -1.79086e-05
0 0 -1.73438e-05
0 0 -1.65586e-05
0 0 -1.55594e-05
0 0 -1.43561e-05
0 0 -1.29629e-05
0 0 -1.14006e-05
0 0 -9.69843e-06
0 0 -7.89765e-06
0 0 -6.05543e-06
0 0 -4.25081e-06
0 0 -2.59149e-06
0 0 -1.22115e-06
0 0 -3.14302e-07
0 0 0
0 0 0
0 0 -7.68172e-08
0 0 -3.14302e-07
0 0 -6.86643e-07
0 0 -1.13791e-06
0 0 -1.62705e-06
0 0 -2.12411e-06
0 0 -2.60798e-06
0 0 -3.06364e-06
0 0 -3.48058e-06
0 0 -3.8514e-06
0 0 -4.17102e-06
0 0 -4.43596e-06
0 0 -4.64388e-06
0 0 -4.79328e-06
0 0 -4.88325e-06
0 0 -4.9133e-06
0 0 -4.88325e-06
0 0 -4.79328e-06
0 0 -4.64388e-06
0 0 -4.43596e-06
0 0 -4.17102e-06
0 0 -3.8514e-06
0 0 -3.48058e-06
0 0 -3.06364e-06
0 0 -2.60798e-06
0 0 -2.12411e-06
0 0 -1.62705e-06
0 0 -1.13791e-06
0 0 -6.86643e-07
0 0 -3.14302e-07
0 0 -7.68172e-08
0 0 0
0 0 0
0 0 0
0 0 0
0 0 0
0 0 0
0 0 0
0 0 0
0 0 0
0 0 0
0 0 0
0 0 0
0 0 0
0 0 0
0 0 0
0 0 0
0 0 0
0 0 0
0 0 0
0 0 0
0 0 0
0 0 0
0 0 0
0 0 0
0 0 0
0 0 0
0 0 0
0 0 0
0 0 0
0 0 0
0 0 0
0 0 0
0 0 0
0 0 0
CELL_DATA 1024
SCALARS Stress float 1
LOOKUP_TABLE default
0
0
0
0
0
0
0
0
0
0
0
0
0
0
0
0
0
0
0
0
0
0
0
0
0
0
0
0
0
0
0
0
0.00958303
0.0160732
0.0181432
0.0189762
0.0188075
0.0180145
0.016755
0.0151765
0.013376
0.0114191
0.00936206
0.00723396
0.00506568
0.00287009
0.000663707
-0.00154541
-0.00374635
-0.00592755
-0.00807554
-0.0101666
-0.012175
-0.0140532
-0.0157477
-0.0171687
-0.0182054
-0.0186931
-0.0184001
-0.0170272
-0.0140836
-0.00913457
-0.00132488
0.0039554
0.0391507
0.0576517
0.0664963
0.0698846
0.0697727
0.0671198
0.0626828
0.056959
0.0503286
0.0430645
0.0353624
0.0273694
0.0191853
0.0108889
0.00253469
-0.0058285
-0.0141562
-0.0223978
-0.0304875
-0.0383399
-0.045831
-0.0527961
-0.0589998
-0.0641264
-0.0677392
-0.0692425
-0.0678417
-0.0624335
-0.0516776
-0.0338947
-0.0087841
0.0161249
0.0855083
0.116535
0.134661
0.142523
0.143087
0.138357
0.129741
0.118308
0.104838
0.0899149
0.0739745
0.0573347
0.0402349
0.0228511
0.0053241
-0.012229
-0.029694
-0.0469449
-0.0638276
-0.0801382
-0.0956055
-0.109859
-0.122402
-0.132565
-0.139456
-0.141899
-0.138345
-0.126844
-0.105021
-0.0705523
-0.0230142
0.0352048
0.141693
0.187628
0.215758
0.229171
0.231097
0.224373
0.211177
0.19317
0.171631
0.147526
0.121588
0.0943723
0.0662971
0.0376865
0.00879939
-0.0201391
-0.0489117
-0.0772815
-0.104964
-0.131596
-0.156704
-0.179659
-0.199631
-0.215533
-0.225946
-0.229045
-0.222529
-0.203571
-0.168927
-0.115436
-0.0404239
0.0583295
0.202598
0.265507
0.30458
0.324006
0.327733
0.31922
0.301346
0.276388
0.246134
0.211975
0.174983
0.135985
0.0956196
0.0543914
0.0127134
-0.0290512
-0.0705492
-0.1114
-0.151156
-0.18926
-0.224996
-0.25744
-0.285392
-0.307312
-0.321233
-0.324687
-0.314625
-0.287394
-0.238828
-0.164339
-0.0589164
0.0834004
0.264486
0.345626
0.39641
0.42229
0.428108
0.418043
0.395601
0.363648
0.324482
0.27992
0.231393
0.180023
0.126694
0.0721159
0.0168809
-0.038483
-0.0934623
-0.147507
-0.199982
-0.250108
-0.296908
-0.33914
-0.375221
-0.403152
-0.420427
-0.42395
-0.409954
-0.373963
-0.310745
-0.214249
-0.0773434
0.108874
0.324739
0.424604
0.487442
0.520058
0.528218
0.516846
0.490078
0.451331
0.403387
0.348486
0.288416
0.224601
0.158181
0.0900867
0.021106
-0.0480518
-0.116695
-0.184088
-0.249391
-0.311592
-0.369441
-0.421374
-0.465426
-0.499153
-0.519527
-0.522852
-0.504669
-0.459663
-0.381559
-0.262932
-0.0948435
0.133678
0.381473
0.499711
0.5746
0.614042
0.624741
0.612344
0.581596
0.536443
0.480126
0.415284
0.344051
0.268147
0.18897
0.107675
0.0252532
-0.057397
-0.139397
-0.219818
-0.297611
-0.371526
-0.440044
-0.501283
-0.552915
-0.592067
-0.615222
-0.618116
-0.595626
-0.541646
-0.448927
-0.30884
-0.111052
0.157031
0.433395
0.569084
0.655527
0.701658
0.714979
0.701827
0.66752
0.616492
0.552412
0.478292
0.396589
0.309307
0.218091
0.124317
0.029175
-0.0662471
-0.160885
-0.253616
-0.343185
-0.428114
-0.506621
-0.576527
-0.635159
-0.67925
-0.704827
-0.707099