# vtk DataFile Version 3.0
STAP++ Results
ASCII
DATASET UNSTRUCTURED_GRID
POINTS 1089 float
0 0 0
1 0 0
2 0 0
3 0 0
4 0 0
5 0 0
6 0 0
7 0 0
8 0 0
9 0 0
10 0 0
11 0 0
12 0 0
13 0 0
14 0 0
15 0 0
16 0 0
17 0 0
18 0 0
19 0 0
20 0 0
21 0 0
22 0 0
23 0 0
24 0 0
25 0 0
26 0 0
27 0 0
28 0 0
29 0 0
30 0 0
31 0 0
32 0 0
0 1 0
1 1 0
2 1 0
3 1 0
4 1 0
5 1 0
6 1 0
7 1 0
8 1 0
9 1 0
10 1 0
11 1 0
12 1 0
13 1 0
14 1 0
15 1 0
16 1 0
17 1 0
18 1 0
19 1 0
20 1 0
21 1 0
22 1 0
23 1 0
24 1 0
25 1 0
26 1 0
27 1 0
28 1 0
29 1 0
30 1 0
31 1 0
32 1 0
0 2 0
1 2 0
2 2 0
3 2 0
4 2 0
5 2 0
6 2 0
7 2 0
8 2 0
9 2 0
10 2 0
11 2 0
12 2 0
13 2 0
14 2 0
15 2 0
16 2 0
17 2 0
18 2 0
19 2 0
20 2 0
21 2 0
22 2 0
23 2 0
24 2 0
25 2 0
26 2 0
27 2 0
28 2 0
29 2 0
30 2 0
31 2 0
32 2 0
0 3 0
1 3 0
2 3 0
3 3 0
4 3 0
5 3 0
6 3 0
7 3 0
8 3 0
9 3 0
10 3 0
11 3 0
12 3 0
13 3 0
14 3 0
15 3 0
16 3 0
17 3 0
18 3 0
19 3 0
20 3 0
21 3 0
22 3 0
23 3 0
24 3 0
25 3 0
26 3 0
27 3 0
28 3 0
29 3 0
30 3 0
31 3 0
32 3 0
0 4 0
1 4 0
2 4 0
3 4 0
4 4 0
5 4 0
6 4 0
7 4 0
8 4 0
9 4 0
10 4 0
11 4 0
12 4 0
13 4 0
14 4 0
15 4 0
16 4 0
17 4 0
18 4 0
19 4 0
20 4 0
21 4 0
22 4 0
23 4 0
24 4 0
25 4 0
26 4 0
27 4 0
28 4 0
29 4 0
30 4 0
31 4 0
32 4 0
0 5 0
1 5 0
2 5 0
3 5 0
4 5 0
5 5 0
6 5 0
7 5 0
8 5 0
9 5 0
10 5 0
11 5 0
12 5 0
13 5 0
14 5 0
15 5 0
16 5 0
17 5 0
18 5 0
19 5 0
20 5 0
21 5 0
22 5 0
23 5 0
24 5 0
25 5 0
26 5 0
27 5 0
28 5 0
29 5 0
30 5 0
31 5 0
32 5 0
0 6 0
1 6 0
2 6 0
3 6 0
4 6 0
5 6 0
6 6 0
7 6 0
8 6 0
9 6 0
10 6 0
11 6 0
12 6 0
13 6 0
14 6 0
15 6 0
16 6 0
17 6 0
18 6 0
19 6 0
20 6 0
21 6 0
22 6 0
23 6 0
24 6 0
25 6 0
26 6 0
27 6 0
28 6 0
29 6 0
30 6 0
31 6 0
32 6 0
0 7 0
1 7 0
2 7 0
3 7 0
4 7 0
5 7 0
6 7 0
7 7 0
8 7 0
9 7 0
10 7 0
11 7 0
12 7 0
13 7 0
14 7 0
15 7 0
16 7 0
17 7 0
18 7 0
19 7 0
20 7 0
21 7 0
22 7 0
23 7 0
24 7 0
25 7 0
26 7 0
27 7 0
28 7 0
29 7 0
30 7 0
31 7 0
32 7 0
0 8 0
1 8 0
2 8 0
3 8 0
4 8 0
5 8 0
6 8 0
7 8 0
8 8 0
9 8 0
10 8 0
11 8 0
12 8 0
13 8 0
14 8 0
15 8 0
16 8 0
17 8 0
18 8 0
19 8 0
20 8 0
21 8 0
22 8 0
23 8 0
24 8 0
25 8 0
26 8 0
27 8 0
28 8 0
29 8 0
30 8 0
31 8 0
32 8 0
0 9 0
1 9 0
2 9 0
3 9 0
4 9 0
5 9 0
6 9 0
7 9 0
8 9 0
9 9 0
10 9 0
11 9 0
12 9 0
13 9 0
14 9 0
15 9 0
16 9 0
17 9 0
18 9 0
19 9 0
20 9 0
21 9 0
22 9 0
23 9 0
24 9 0
25 9 0
26 9 0
27 9 0
28 9 0
29 9 0
30 9 0
31 9 0
32 9 0
0 10 0
1 10 0
2 10 0
3 10 0
4 10 0
5 10 0
6 10 0
7 10 0
8 10 0
9 10 0
10 10 0
11 10 0
12 10 0
13 10 0
14 10 0
15 10 0
16 10 0
17 10 0
18 10 0
19 10 0
20 10 0
21 10 0
22 10 0
23 10 0
24 10 0
25 10 0
26 10 0
27 10 0
28 10 0
29 10 0
30 10 0
31 10 0
32 10 0
0 11 0
1 11 0
2 11 0
3 11 0
4 11 0
5 11 0
6 11 0
7 11 0
8 11 0
9 11 0
10 11 0
11 11 0
12 11 0
13 11 0
14 11 0
15 11 0
16 11 0
17 11 0
18 11 0
19 11 0
20 11 0
21 11 0
22 11 0
23 11 0
24 11 0
25 11 0
26 11 0
27 11 0
28 11 0
29 11 0
30 11 0
31 11 0
32 11 0
0 12 0
1 12 0
2 12 0
3 12 0
4 12 0
5 12 0
6 12 0
7 12 0
8 12 0
9 12 0
10 12 0
11 12 0
12 12 0
13 12 0
14 12 0
15 12 0
16 12 0
17 12 0
18 12 0
19 12 0
20 12 0
21 12 0
22 12 0
23 12 0
24 12 0
25 12 0
26 12 0
27 12 0
28 12 0
29 12 0
30 12 0
31 12 0
32 12 0
0 13 0
1 13 0
2 13 0
3 13 0
4 13 0
5 13 0
6 13 0
7 13 0
8 13 0
9 13 0
10 13 0
11 13 0
12 13 0
13 13 0
14 13 0
15 13 0
16 13 0
17 13 0
18 13 0
19 13 0
20 13 0
21 13 0
22 13 0
23 13 0
24 13 0
25 13 0
26 13 0
27 13 0
28 13 0
29 13 0
30 13 0
31 13 0
32 13 0
0 14 0
1 14 0
2 14 0
3 14 0
4 14 0
5 14 0
6 14 0
7 14 0
8 14 0
9 14 0
10 14 0
11 14 0
12 14 0
13 14 0
14 14 0
15 14 0
16 14 0
17 14 0
18 14 0
19 14 0
20 14 0
21 14 0
22 14 0
23 14 0
24 14 0
25 14 0
26 14 0
27 14 0
28 14 0
29 14 0
30 14 0
31 14 0
32 14 0
0 15 0
1 15 0
2 15 0
3 15 0
4 15 0
5 15 0
6 15 0
7 15 0
8 15 0
9 15 0
10 15 0
11 15 0
12 15 0
13 15 0
14 15 0
15 15 0
16 15 0
17 15 0
18 15 0
19 15 0
20 15 0
21 15 0
22 15 0
23 15 0
24 15 0
25 15 0
26 15 0
27 15 0
28 15 0
29 15 0
30 15 0
31 15 0
32 15 0
0 16 0
1 16 0
2 16 0
3 16 0
4 16 0
5 16 0
6 16 0
7 16 0
8 16 0
9 16 0
10 16 0
11 16 0
12 16 0
13 16 0
14 16 0
15 16 0
16 16 0
17 16 0
18 16 0
19 16 0
20 16 0
21 16 0
22 16 0
23 16 0
24 16 0
25 16 0
26 16 0
27 16 0
28 16 0
29 16 0
30 16 0
31 16 0
32 16 0
0 17 0
1 17 0
2 17 0
3 17 0
4 17 0
5 17 0
6 17 0
7 17 0
8 17 0
9 17 0
10 17 0
11 17 0
12 17 0
13 17 0
14 17 0
15 17 0
16 17 0
17 17 0
18 17 0
19 17 0
20 17 0
21 17 0
22 17 0
23 17 0
24 17 0
25 17 0
26 17 0
27 17 0
28 17 0
29 17 0
30 17 0
31 17 0
32 17 0
0 18 0
1 18 0
2 18 0
3 18 0
4 18 0
5 18 0
6 18 0
7 18 0
8 18 0
9 18 0
10 18 0
11 18 0
12 18 0
13 18 0
14 18 0
15 18 0
16 18 0
17 18 0
18 18 0
19 18 0
20 18 0
21 18 0
22 18 0
23 18 0
24 18 0
25 18 0
26 18 0
27 18 0
28 18 0
29 18 0
30 18 0
31 18 0
32 18 0
0 19 0
1 19 0
2 19 0
3 19 0
4 19 0
5 19 0
6 19 0
7 19 0
8 19 0
9 19 0
10 19 0
11 19 0
12 19 0
13 19 0
14 19 0
15 19 0
16 19 0
17 19 0
18 19 0
19 19 0
20 19 0
21 19 0
22 19 0
23 19 0
24 19 0
25 19 0
26 19 0
27 19 0
28 19 0
29 19 0
30 19 0
31 19 0
32 19 0
0 20 0
1 20 0
2 20 0
3 20 0
4 20 0
5 20 0
6 20 0
7 20 0
8 20 0
9 20 0
10 20 0
11 20 0
12 20 0
13 20 0
14 20 0
15 20 0
16 20 0
17 20 0
18 20 0
19 20 0
20 20 0
21 20 0
22 20 0
23 20 0
24 20 0
25 20 0
26 20 0
27 20 0
28 20 0
29 20 0
30 20 0
31 20 0
32 20 0
0 21 0
1 21 0
2 21 0
3 21 0
4 21 0
5 21 0
6 21 0
7 21 0
8 21 0
9 21 0
10 21 0
11 21 0
12 21 0
13 21 0
14 21 0
15 21 0
16 21 0
17 21 0
18 21 0
19 21 0
20 21 0
21 21 0
22 21 0
23 21 0
24 21 0
25 21 0
26 21 0
27 21 0
28 21 0
29 21 0
30 21 0
31 21 0
32 21 0
0 22 0
1 22 0
2 22 0
3 22 0
4 22 0
5 22 0
6 22 0
7 22 0
8 22 0
9 22 0
10 22 0
11 22 0
12 22 0
13 22 0
14 22 0
15 22 0
16 22 0
17 22 0
18 22 0
19 22 0
20 22 0
21 22 0
22 22 0
23 22 0
24 22 0
25 22 0
26 22 0
27 22 0
28 22 0
29 22 0
30 22 0
31 22 0
32 22 0
0 23 0
1 23 0
2 23 0
3 23 0
4 23 0
5 23 0
6 23 0
7 23 0
8 23 0
9 23 0
10 23 0
11 23 0
12 23 0
13 23 0
14 23 0
15 23 0
16 23 0
17 23 0
18 23 0
19 23 0
20 23 0
21 23 0
22 23 0
23 23 0
24 23 0
25 23 0
26 23 0
27 23 0
28 23 0
29 23 0
30 23 0
31 23 0
32 23 0
0 24 0
1 24 0
2 24 0
3 24 0
4 24 0
5 24 0
6 24 0
7 24 0
8 24 0
9 24 0
10 24 0
11 24 0
12 24 0
13 24 0
14 24 0
15 24 0
16 24 0
17 24 0
18 24 0
19 24 0
20 24 0
21 24 0
22 24 0
23 24 0
24 24 0
25 24 0
26 24 0
27 24 0
28 24 0
29 24 0
30 24 0
31 24 0
32 24 0
0 25 0
1 25 0
2 25 0
3 25 0
4 25 0
5 25 0
6 25 0
7 25 0
8 25 0
9 25 0
10 25 0
11 25 0
12 25 0
13 25 0
14 25 0
15 25 0
16 25 0
17 25 0
18 25 0
19 25 0
20 25 0
21 25 0
22 25 0
23 25 0
24 25 0
25 25 0
26 25 0
27 25 0
28 25 0
29 25 0
30 25 0
31 25 0
32 25 0
0 26 0
1 26 0
2 26 0
3 26 0
4 26 0
5 26 0
6 26 0
7 26 0
8 26 0
9 26 0
10 26 0
11 26 0
12 26 0
13 26 0
14 26 0
15 26 0
16 26 0
17 26 0
18 26 0
19 26 0
20 26 0
21 26 0
22 26 0
23 26 0
24 26 0
25 26 0
26 26 0
27 26 0
28 26 0
29 26 0
30 26 0
31 26 0
32 26 0
0 27 0
1 27 0
2 27 0
3 27 0
4 27 0
5 27 0
6 27 0
7 27 0
8 27 0
9 27 0
10 27 0
11 27 0
12 27 0
13 27 0
14 27 0
15 27 0
16 27 0
17 27 0
18 27 0
19 27 0
20 27 0
21 27 0
22 27 0
23 27 0
24 27 0
25 27 0
26 27 0
27 27 0
28 27 0
29 27 0
30 27 0
31 27 0
32 27 0
0 28 0
1 28 0
2 28 0
3 28 0
4 28 0
5 28 0
6 28 0
7 28 0
8 28 0
9 28 0
10 28 0
11 28 0
12 28 0
13 28 0
14 28 0
15 28 0
16 28 0
17 28 0
18 28 0
19 28 0
20 28 0
21 28 0
22 28 0
23 28 0
24 28 0
25 28 0
26 28 0
27 28 0
28 28 0
29 28 0
30 28 0
31 28 0
32 28 0
0 29 0
1 29 0
2 29 0
3 29 0
4 29 0
5 29 0
6 29 0
7 29 0
8 29 0
9 29 0
10 29 0
11 29 0
12 29 0
13 29 0
14 29 0
15 29 0
16 29 0
17 29 0
18 29 0
19 29 0
20 29 0
21 29 0
22 29 0
23 29 0
24 29 0
25 29 0
26 29 0
27 29 0
28 29 0
29 29 0
30 29 0
31 29 0
32 29 0
0 30 0
1 30 0
2 30 0
3 30 0
4 30 0
5 30 0
6 30 0
7 30 0
8 30 0
9 30 0
10 30 0
11 30 0
12 30 0
13 30 0
14 30 0
15 30 0
16 30 0
17 30 0
18 30 0
19 30 0
20 30 0
21 30 0
22 30 0
23 30 0
24 30 0
25 30 0
26 30 0
27 30 0
28 30 0
29 30 0
30 30 0
31 30 0
32 30 0
0 31 0
1 31 0
2 31 0
3 31 0
4 31 0
5 31 0
6 31 0
7 31 0
8 31 0
9 31 0
10 31 0
11 31 0
12 31 0
13 31 0
14 31 0
15 31 0
16 31 0
17 31 0
18 31 0
19 31 0
20 31 0
21 31 0
22 31 0
23 31 0
24 31 0
25 31 0
26 31 0
27 31 0
28 31 0
29 31 0
30 31 0
31 31 0
32 31 0
0 32 0
1 32 0
2 32 0
3 32 0
4 32 0
5 32 0
6 32 0
7 32 0
8 32 0
9 32 0
10 32 0
11 32 0
12 32 0
13 32 0
14 32 0
15 32 0
16 32 0
17 32 0
18 32 0
19 32 0
20 32 0
21 32 0
22 32 0
23 32 0
24 32 0
25 32 0
26 32 0
27 32 0
28 32 0
29 32 0
30 32 0
31 32 0
32 32 0
CELLS 1024 5120
4 0 1 34 33
4 1 2 35 34
4 2 3 36 35
4 3 4 37 36
4 4 5 38 37
4 5 6 39 38
4 6 7 40 39
4 7 8 41 40
4 8 9 42 41
4 9 10 43 42
4 10 11 44 43
4 11 12 45 44
4 12 13 46 45
4 13 14 47 46
4 14 15 48 47
4 15 16 49 48
4 16 17 50 49
4 17 18 51 50
4 18 19 52 51
4 19 20 53 52
4 20 21 54 53
4 21 22 55 54
4 22 23 56 55
4 23 24 57 56
4 24 25 58 57
4 25 26 59 58
4 26 27 60 59
4 27 28 61 60
4 28 29 62 61
4 29 30 63 62
4 30 31 64 63
4 31 32 65 64
4 33 34 67 66
4 34 35 68 67
4 35 36 69 68
4 36 37 70 69
4 37 38 71 70
4 38 39 72 71
4 39 40 73 72
4 40 41 74 73
4 41 42 75 74
4 42 43 76 75
4 43 44 77 76
4 44 45 78 77
4 45 46 79 78
4 46 47 80 79
4 47 48 81 80
4 48 49 82 81
4 49 50 83 82
4 50 51 84 83
4 51 52 85 84
4 52 53 86 85
4 53 54 87 86
4 54 55 88 87
4 55 56 89 88
4 56 57 90 89
4 57 58 91 90
4 58 59 92 91
4 59 60 93 92
4 60 61 94 93
4 61 62 95 94
4 62 63 96 95
4 63 64 97 96
4 64 65 98 97
4 66 67 100 99
4 67 68 101 100
4 68 69 102 101
4 69 70 103 102
4 70 71 104 103
4 71 72 105 104
4 72 73 106 105
4 73 74 107 106
4 74 75 108 107
4 75 76 109 108
4 76 77 110 109
4 77 78 111 110
4 78 79 112 111
4 79 80 113 112
4 80 81 114 113
4 81 82 115 114
4 82 83 116 115
4 83 84 117 116
4 84 85 118 117
4 85 86 119 118
4 86 87 120 119
4 87 88 121 120
4 88 89 122 121
4 89 90 123 122
4 90 91 124 123
4 91 92 125 124
4 92 93 126 125
4 93 94 127 126
4 94 95 128 127
4 95 96 129 128
4 96 97 130 129
4 97 98 131 130
4 99 100 133 132
4 100 101 134 133
4 101 102 135 134
4 102 103 136 135
4 103 104 137 136
4 104 105 138 137
4 105 106 139 138
4 106 107 140 139
4 107 108 141 140
4 108 109 142 141
4 109 110 143 142
4 110 111 144 143
4 111 112 145 144
4 112 113 146 145
4 113 114 147 146
4 114 115 148 147
4 115 116 149 148
4 116 117 150 149
4 117 118 151 150
4 118 119 152 151
4 119 120 153 152
4 120 121 154 153
4 121 122 155 154
4 122 123 156 155
4 123 124 157 156
[...]
POINT_DATA 1089
VECTORS Displacement float
0 0 0
0 0 0
0 0 0
0 0 0
0 0 0
0 0 0
0 0 0
0 0 0
0 0 0
0 0 0
0 0 0
0 0 0
0 0 0
0 0 0
0 0 0
0 0 0
0 0 0
0 0 0
0 0 0
0 0 0
0 0 0
0 0 0
0 0 0
0 0 0
0 0 0
0 0 0
0 0 0
0 0 0
0 0 0
0 0 0
0 0 0
0 0 0
0 0 0
0 0 0
0 0 -1.96619e-05
0 0 -8.03245e-05
0 0 -0.000175361
0 0 -0.000290495
0 0 -0.000415246
0 0 -0.000541981
0 0 -0.00066532
0 0 -0.000781444
0 0 -0.000887678
0 0 -0.000982147
0 0 -0.00106356
0 0 -0.00113103
0 0 -0.00118399
0 0 -0.00122204
0 0 -0.00124495
0 0 -0.00125261
0 0 -0.00124497
0 0 -0.00122207
0 0 -0.00118404
0 0 -0.0011311
0 0 -0.00106364
0 0 -0.000982234
0 0 -0.00088777
0 0 -0.000781538
0 0 -0.00066541
0 0 -0.000542063
0 0 -0.000415315
0 0 -0.000290548
0 0 -0.000175395
0 0 -8.03416e-05
0 0 -1.96663e-05
0 0 0
0 0 0
0 0 -8.03251e-05
0 0 -0.000311931
0 0 -0.00066173
0 0 -0.00108512
0 0 -0.00154542
0 0 -0.00201519
0 0 -0.00247427
0 0 -0.0029081
0 0 -0.00330622
0 0 -0.00366118
0 0 -0.00396774
0 0 -0.00422225
0 0 -0.00442225
0 0 -0.0045661
0 0 -0.00465279
0 0 -0.00468177
0 0 -0.00465286
0 0 -0.00456623
0 0 -0.00442243
0 0 -0.00422249
0 0 -0.00396802
0 0 -0.00366149
0 0 -0.00330655
0 0 -0.00290843
0 0 -0.00247458
0 0 -0.00201547
0 0 -0.00154567
0 0 -0.0010853
0 0 -0.000661854
0 0 -0.000311994
0 0 -8.03422e-05
0 0 0
0 0 0
0 0 -0.000175363
0 0 -0.000661735
0 0 -0.00137668
0 0 -0.0022388
0 0 -0.0031786
0 0 -0.00414173
0 0 -0.00508701
0 0 -0.00598382
0 0 -0.00680963
0 0 -0.00754806
0 0 -0.00818733
0 0 -0.00871913
0 0 -0.00913766
0 0 -0.00943903
0 0 -0.00962078
0 0 -0.00968155
0 0 -0.0096209
0 0 -0.00943928
0 0 -0.00913802
0 0 -0.00871959
0 0 -0.00818788
0 0 -0.00754866
0 0 -0.00681026
0 0 -0.00598446
0 0 -0.00508762
0 0 -0.00414228
0 0 -0.00317907
0 0 -0.00223916
0 0 -0.00137692
0 0 -0.000661859
0 0 -0.000175398
0 0 0
0 0 0
0 0 -0.000290502
0 0 -0.00108513
0 0 -0.00223882
0 0 -0.00362515
0 0 -0.00513842
0 0 -0.00669392
0 0 -0.00822582
0 0 -0.009684
0 0 -0.0110308
0 0 -0.0122382
0 0 -0.0132858
0 0 -0.0141588
0 0 -0.0148469
0 0 -0.0153429
0 0 -0.0156422
0 0 -0.0157424
0 0 -0.0156424
0 0 -0.0153433
0 0 -0.0148475
0 0 -0.0141595
0 0 -0.0132866
0 0 -0.0122391
0 0 -0.0110317
0 0 -0.00968496
0 0 -0.00822675
0 0 -0.00669475
0 0 -0.00513913
0 0 -0.00362569
0 0 -0.00223918
0 0 -0.00108532
0 0 -0.000290555
0 0 0
0 0 0
0 0 -0.00041526
0 0 -0.00154546
0 0 -0.00317866
0 0 -0.00513846
0 0 -0.00727985
0 0 -0.00948591
0 0 -0.0116643
0 0 -0.0137435
0 0 -0.0156687
0 0 -0.0173986
0 0 -0.0189024
0 0 -0.0201576
0 0 -0.0211481
0 0 -0.0218628
0 0 -0.0222944
0 0 -0.0224388
0 0 -0.0222947
0 0 -0.0218633
0 0 -0.0211489
0 0 -0.0201585
0 0 -0.0189034
0 0 -0.0173998
0 0 -0.01567
0 0 -0.0137448
0 0 -0.0116656
0 0 -0.009487
0 0 -0.00728076
0 0 -0.00513917
0 0 -0.00317913
0 0 -0.00154571
0 0 -0.000415329
0 0 0
0 0 0
0 0 -0.000542003
0 0 -0.00201525
0 0 -0.00414183
0 0 -0.00669402
0 0 -0.00948598
0 0 -0.0123676
0 0 -0.0152193
0 0 -0.0179471
0 0 -0.0204782
0 0 -0.0227568
0 0 -0.0247408
0 0 -0.0263993
0 0 -0.0277094
0 0 -0.0286555
0 0 -0.0292271
0 0 -0.0294184
0 0 -0.0292274
0 0 -0.0286561
0 0 -0.0277103
0 0 -0.0264004
0 0 -0.0247421
0 0 -0.0227582
0 0 -0.0204797
0 0 -0.0179486
0 0 -0.0152208
0 0 -0.0123689
0 0 -0.00948707
0 0 -0.00669485
0 0 -0.00414238
0 0 -0.00201554
0 0 -0.000542085
0 0 0
0 0 0
0 0 -0.000665352
0 0 -0.00247437
0 0 -0.00508717
0 0 -0.008226
0 0 -0.0116645
0 0 -0.0152194
0 0 -0.0187439
0 0 -0.0221214
0 0 -0.0252608
0 0 -0.0280915
0 0 -0.0305598
0 0 -0.0326255
0 0 -0.0342589
0 0 -0.0354392
0 0 -0.0361527
0 0 -0.0363915
0 0 -0.0361531
0 0 -0.0354399
0 0 -0.0342599
0 0 -0.0326267
0 0 -0.0305613
0 0 -0.0280931
0 0 -0.0252624
0 0 -0.0221231
0 0 -0.0187455
0 0 -0.0152209
0 0 -0.0116657
0 0 -0.00822692
0 0 -0.00508778
0 0 -0.00247468
0 0 -0.000665441
0 0 0
0 0 0
0 0 -0.000781487
0 0 -0.00290823
0 0 -0.00598404
0 0 -0.00968427
0 0 -0.0137438
0 0 -0.0179474
0 0 -0.0221215
0 0 -0.0261279
0 0 -0.0298573
0 0 -0.0332245
0 0 -0.0361642
0 0 -0.0386267
0 0 -0.0405756
0 0 -0.0419847
0 0 -0.0428368
0 0 -0.0431221
0 0 -0.0428372
0 0 -0.0419854
0 0 -0.0405766
0 0 -0.038628
0 0 -0.0361657
0 0 -0.0332262
0 0 -0.029859
0 0 -0.0261296
0 0 -0.0221232
0 0 -0.0179489
0 0 -0.0137451
0 0 -0.00968523
0 0 -0.00598467
0 0 -0.00290856
0 0 -0.00078158
0 0 0
0 0 0
0 0 -0.000887731
0 0 -0.00330639
0 0 -0.00680991
0 0 -0.0110311
0 0 -0.0156691
0 0 -0.0204785
0 0 -0.025261
0 0 -0.0298574
0 0 -0.0341414
0 0 -0.0380137
0 0 -0.0413977
0 0 -0.0442348
0 0 -0.0464816
0 0 -0.048107
0 0 -0.0490903
0 0 -0.0494195
0 0 -0.0490907
0 0 -0.0481077
0 0 -0.0464826
0 0 -0.0442361
0 0 -0.0413992
0 0 -0.0380154
0 0 -0.0341431
0 0 -0.0298592
0 0 -0.0252627
0 0 -0.02048
0 0 -0.0156703
0 0 -0.0110321
0 0 -0.00681055
0 0 -0.00330672
0 0 -0.000887823
0 0 0
0 0 0
0 0 -0.000982211
0 0 -0.00366139
0 0 -0.00754841
0 0 -0.0122386
0 0 -0.0173991
0 0 -0.0227572
0 0 -0.0280919
0 0 -0.0332248
0 0 -0.0380139
0 0 -0.0423469
0 0 -0.0461365
0 0 -0.0493159
0 0 -0.0518353
0 0 -0.0536587
0 0 -0.054762
0 0 -0.0551314
0 0 -0.0547624
0 0 -0.0536594
0 0 -0.0518363
0 0 -0.0493172
0 0 -0.0461379
0 0 -0.0423485
0 0 -0.0380156
0 0 -0.0332265
0 0 -0.0280935
0 0 -0.0227587
0 0 -0.0174003
0 0 -0.0122396
0 0 -0.00754901
0 0 -0.0036617
0 0 -0.000982298
0 0 0
0 0 0
0 0 -0.00106363
0 0 -0.00396797
0 0 -0.00818775
0 0 -0.0132863
0 0 -0.018903
0 0 -0.0247414
0 0 -0.0305604
0 0 -0.0361646
0 0 -0.041398
0 0 -0.0461366
0 0 -0.0502839
0 0 -0.0537654
0 0 -0.0565254
0 0 -0.0585237
0 0 -0.0597331
0 0 -0.060138
0 0 -0.0597334
0 0 -0.0585243
0 0 -0.0565263
0 0 -0.0537665
0 0 -0.0502852
0 0 -0.0461381
0 0 -0.0413995
0 0 -0.0361662
0 0 -0.0305618
0 0 -0.0247427
0 0 -0.018904
0 0 -0.0132872
0 0 -0.00818829
0 0 -0.00396825
0 0 -0.00106371
0 0 0
0 0 0
0 0 -0.00113112
0 0 -0.00422252
0 0 -0.00871959
0 0 -0.0141595
0 0 -0.0201583
0 0 -0.0264
0 0 -0.0326261
0 0 -0.0386273
0 0 -0.0442352
0 0 -0.0493162
0 0 -0.0537655
0 0 -0.0575023
0 0 -0.0604658
0 0 -0.062612
0 0 -0.0639111
0 0 -0.0643461
0 0 -0.0639114
0 0 -0.0626125
0 0 -0.0604666
0 0 -0.0575033
0 0 -0.0537667
0 0 -0.0493175
0 0 -0.0442365
0 0 -0.0386286
0 0 -0.0326274
0 0 -0.0264011
0 0 -0.0201592
0 0 -0.0141602
0 0 -0.00872006
0 0 -0.00422276
0 0 -0.00113118
0 0 0
0 0 0
0 0 -0.00118408
0 0 -0.00442254
0 0 -0.00913816
0 0 -0.0148476
0 0 -0.0211489
0 0 -0.0277102
0 0 -0.0342597
0 0 -0.0405763
0 0 -0.0464822
0 0 -0.0518357
0 0 -0.0565257
0 0 -0.0604659
0 0 -0.0635917
0 0 -0.0658558
0 0 -0.0672266
0 0 -0.0676856
0 0 -0.0672268
0 0 -0.0658562
0 0 -0.0635923
0 0 -0.0604667
0 0 -0.0565266
0 0 -0.0518367
0 0 -0.0464832
0 0 -0.0405773
0 0 -0.0342606
0 0 -0.0277111
0 0 -0.0211496
0 0 -0.0148482
0 0 -0.00913853
0 0 -0.00442273
0 0 -0.00118413
0 0 0
0 0 0
0 0 -0.00122213
0 0 -0.00456641
0 0 -0.00943957
0 0 -0.0153436
0 0 -0.0218637
0 0 -0.0286564
0 0 -0.0354401
0 0 -0.0419855
0 0 -0.0481077
0 0 -0.0536592
0 0 -0.058524
0 0 -0.0626122
0 0 -0.0658559
0 0 -0.0682059
0 0 -0.0696287
0 0 -0.0701051
0 0 -0.0696288
0 0 -0.0682062
0 0 -0.0658563
0 0 -0.0626127
0 0 -0.0585246
0 0 -0.0536599
0 0 -0.0481084
0 0 -0.0419862
0 0 -0.0354408
0 0 -0.028657
0 0 -0.0218642
0 0 -0.015344
0 0 -0.00943982
0 0 -0.00456654
0 0 -0.00122217
0 0 0
0 0 0
0 0 -0.00124505
0 0 -0.00465311
0 0 -0.00962134
0 0 -0.015643
0 0 -0.0222953
0 0 -0.0292281
0 0 -0.0361536
0 0 -0.0428377
0 0 -0.049091
0 0 -0.0547626
0 0 -0.0597335
0 0 -0.0639114
0 0 -0.0672267
0 0 -0.0696287
0 0 -0.0710832
0 0 -0.0715702
0 0 -0.0710833
0 0 -0.0696289
0 0 -0.0672269
0 0 -0.0639117
0 0 -0.0597338
0 0 -0.054763
0 0 -0.0490914
0 0 -0.042838
0 0 -0.036154
0 0 -0.0292284
0 0 -0.0222955
0 0 -0.0156432
0 0 -0.00962146
0 0 -0.00465318
0 0 -0.00124507
0 0 0
0 0 0
0 0 -0.00125271
0 0 -0.00468209
0 0 -0.00968211
0 0 -0.0157431
0 0 -0.0224397
0 0 -0.0294193
0 0 -0.0363925
0 0 -0.0431229
0 0 -0.0494202
0 0 -0.055132
0 0 -0.0601384
0 0 -0.0643464
0 0 -0.0676857
0 0 -0.0701052
0 0 -0.0715702
0 0 -0.0720607
0 0 -0.0715702
0 0 -0.0701052
0 0 -0.0676857
0 0 -0.0643464
0 0 -0.0601384
0 0 -0.055132
0 0 -0.0494202
0 0 -0.0431229
0 0 -0.0363925
0 0 -0.0294193
0 0 -0.0224397
0 0 -0.0157431
0 0 -0.00968211
0 0 -0.00468209
0 0 -0.00125271
0 0 0
0 0 0
0 0 -0.00124507
0 0 -0.00465318
0 0 -0.00962146
0 0 -0.0156432
0 0 -0.0222955
0 0 -0.0292284
0 0 -0.036154
0 0 -0.042838
0 0 -0.0490914
0 0 -0.054763
0 0 -0.0597338
0 0 -0.0639117
0 0 -0.0672269
0 0 -0.0696289
0 0 -0.0710833
0 0 -0.0715702
0 0 -0.0710832
0 0 -0.0696287
0 0 -0.0672267
0 0 -0.0639114
0 0 -0.0597335
0 0 -0.0547626
0 0 -0.049091
0 0 -0.0428377
0 0 -0.0361536
0 0 -0.0292281
0 0 -0.0222953
0 0 -0.015643
0 0 -0.00962134
0 0 -0.00465311
0 0 -0.00124505
0 0 0
0 0 0
0 0 -0.00122217
0 0 -0.00456654
0 0 -0.00943982
0 0 -0.015344
0 0 -0.0218642
0 0 -0.028657
0 0 -0.0354408
0 0 -0.0419862
0 0 -0.0481084
0 0 -0.0536599
0 0 -0.0585246
0 0 -0.0626127
0 0 -0.0658563
0 0 -0.0682062
0 0 -0.0696288
0 0 -0.0701051
0 0 -0.0696287
0 0 -0.0682059
0 0 -0.0658559
0 0 -0.0626122
0 0 -0.058524
0 0 -0.0536592
0 0 -0.0481077
0 0 -0.0419855
0 0 -0.0354401
0 0 -0.0286564
0 0 -0.0218637
0 0 -0.0153436
0 0 -0.00943957
0 0 -0.00456641
0 0 -0.00122213
0 0 0
0 0 0
0 0 -0.00118413
0 0 -0.00442273
0 0 -0.00913853
0 0 -0.0148482
0 0 -0.0211496
0 0 -0.0277111
0 0 -0.0342606
0 0 -0.0405773
0 0 -0.0464832
0 0 -0.0518367
0 0 -0.0565266
0 0 -0.0604667
0 0 -0.0635923
0 0 -0.0658562
0 0 -0.0672268
0 0 -0.0676856
0 0 -0.0672266
0 0 -0.0658558
0 0 -0.0635917
0 0 -0.0604659
0 0 -0.0565257
0 0 -0.0518357
0 0 -0.0464822
0 0 -0.0405763
0 0 -0.0342597
0 0 -0.0277102
0 0 -0.0211489
0 0 -0.0148476
0 0 -0.00913816
0 0 -0.00442254
0 0 -0.00118408
0 0 0
0 0 0
0 0 -0.00113118
0 0 -0.00422276
0 0 -0.00872006
0 0 -0.0141602
0 0 -0.0201592
0 0 -0.0264011
0 0 -0.0326274
0 0 -0.0386286
0 0 -0.0442365
0 0 -0.0493175
0 0 -0.0537667
0 0 -0.0575033
0 0 -0.0604666
0 0 -0.0626125
0 0 -0.0639114
0 0 -0.0643461
0 0 -0.0639111
0 0 -0.062612
0 0 -0.0604658
0 0 -0.0575023
0 0 -0.0537655
0 0 -0.0493162
0 0 -0.0442352
0 0 -0.0386273
0 0 -0.0326261
0 0 -0.0264
0 0 -0.0201583
0 0 -0.0141595
0 0 -0.00871959
0 0 -0.00422252
0 0 -0.00113112
0 0 0
0 0 0
0 0 -0.00106371
0 0 -0.00396825
0 0 -0.00818829
0 0 -0.0132872
0 0 -0.018904
0 0 -0.0247427
0 0 -0.0305618
0 0 -0.0361662
0 0 -0.0413995
0 0 -0.0461381
0 0 -0.0502852
0 0 -0.0537665
0 0 -0.0565263
0 0 -0.0585243
0 0 -0.0597334
0 0 -0.060138
0 0 -0.0597331
0 0 -0.0585237
0 0 -0.0565254
0 0 -0.0537654
0 0 -0.0502839
0 0 -0.0461366
0 0 -0.041398
0 0 -0.0361646
0 0 -0.0305604
0 0 -0.0247414
0 0 -0.018903
0 0 -0.0132863
0 0 -0.00818775
0 0 -0.00396797
0 0 -0.00106363
0 0 0
0 0 0
0 0 -0.000982298
0 0 -0.0036617
0 0 -0.00754901
0 0 -0.0122396
0 0 -0.0174003
0 0 -0.0227587
0 0 -0.0280935
0 0 -0.0332265
0 0 -0.0380156
0 0 -0.0423485
0 0 -0.0461379
0 0 -0.0493172
0 0 -0.0518363
0 0 -0.0536594
0 0 -0.0547624
0 0 -0.0551314
0 0 -0.054762
0 0 -0.0536587
0 0 -0.0518353
0 0 -0.0493159
0 0 -0.0461365
0 0 -0.0423469
0 0 -0.0380139
0 0 -0.0332248
0 0 -0.0280919
0 0 -0.0227572
0 0 -0.0173991
0 0 -0.0122386
0 0 -0.00754841
0 0 -0.00366139
0 0 -0.000982211
0 0 0
0 0 0
0 0 -0.000887823
0 0 -0.00330672
0 0 -0.00681055
0 0 -0.0110321
0 0 -0.0156703
0 0 -0.02048
0 0 -0.0252627
0 0 -0.0298592
0 0 -0.0341431
0 0 -0.0380154
0 0 -0.0413992
0 0 -0.0442361
0 0 -0.0464826
0 0 -0.0481077
0 0 -0.0490907
0 0 -0.0494195
0 0 -0.0490903
0 0 -0.048107
0 0 -0.0464816
0 0 -0.0442348
0 0 -0.0413977
0 0 -0.0380137
0 0 -0.0341414
0 0 -0.0298574
0 0 -0.025261
0 0 -0.0204785
0 0 -0.0156691
0 0 -0.0110311
0 0 -0.00680991
0 0 -0.00330639
0 0 -0.000887731
0 0 0
0 0 0
0 0 -0.00078158
0 0 -0.00290856
0 0 -0.00598467
0 0 -0.00968523
0 0 -0.0137451
0 0 -0.0179489
0 0 -0.0221232
0 0 -0.0261296
0 0 -0.029859
0 0 -0.0332262
0 0 -0.0361657
0 0 -0.038628
0 0 -0.0405766
0 0 -0.0419854
0 0 -0.0428372
0 0 -0.0431221
0 0 -0.0428368
0 0 -0.0419847
0 0 -0.0405756
0 0 -0.0386267
0 0 -0.0361642
0 0 -0.0332245
0 0 -0.0298573
0 0 -0.0261279
0 0 -0.0221215
0 0 -0.0179474
0 0 -0.0137438
0 0 -0.00968427
0 0 -0.00598404
0 0 -0.00290823
0 0 -0.000781487
0 0 0
0 0 0
0 0 -0.000665441
0 0 -0.00247468
0 0 -0.00508778
0 0 -0.00822692
0 0 -0.0116657
0 0 -0.0152209
0 0 -0.0187455
0 0 -0.0221231
0 0 -0.0252624
0 0 -0.0280931
0 0 -0.0305613
0 0 -0.0326267
0 0 -0.0342599
0 0 -0.0354399
0 0 -0.0361531
0 0 -0.0363915
0 0 -0.0361527
0 0 -0.0354392
0 0 -0.0342589
0 0 -0.0326255
0 0 -0.0305598
0 0 -0.0280915
0 0 -0.0252608
0 0 -0.0221214
0 0 -0.0187439
0 0 -0.0152194
0 0 -0.0116645
0 0 -0.008226
0 0 -0.00508717
0 0 -0.00247437
0 0 -0.000665352
0 0 0
0 0 0
0 0 -0.000542085
0 0 -0.00201554
0 0 -0.00414238
0 0 -0.00669485
0 0 -0.00948707
0 0 -0.0123689
0 0 -0.0152208
0 0 -0.0179486
0 0 -0.0204797
0 0 -0.0227582
0 0 -0.0247421
0 0 -0.0264004
0 0 -0.0277103
0 0 -0.0286561
0 0 -0.0292274
0 0 -0.0294184
0 0 -0.0292271
0 0 -0.0286555
0 0 -0.0277094
0 0 -0.0263993
0 0 -0.0247408
0 0 -0.0227568
0 0 -0.0204782
0 0 -0.0179471
0 0 -0.0152193
0 0 -0.0123676
0 0 -0.00948598
0 0 -0.00669402
0 0 -0.00414183
0 0 -0.00201525
0 0 -0.000542003
0 0 0
0 0 0
0 0 -0.000415329
0 0 -0.00154571
0 0 -0.00317913
0 0 -0.00513917
0 0 -0.00728076
0 0 -0.009487
0 0 -0.0116656
0 0 -0.0137448
0 0 -0.01567
0 0 -0.0173998
0 0 -0.0189034
0 0 -0.0201585
0 0 -0.0211489
0 0 -0.0218633
0 0 -0.0222947
0 0 -0.0224388
0 0 -0.0222944
0 0 -0.0218628
0 0 -0.0211481
0 0 -0.0201576
0 0 -0.0189024
0 0 -0.0173986
0 0 -0.0156687
0 0 -0.0137435
0 0 -0.0116643
0 0 -0.00948591
0 0 -0.00727985
0 0 -0.00513846
0 0 -0.00317866
0 0 -0.00154546
0 0 -0.00041526
0 0 0
0 0 0
0 0 -0.000290555
0 0 -0.00108532
0 0 -0.00223918
0 0 -0.00362569
0 0 -0.00513913
0 0 -0.00669475
0 0 -0.00822675
0 0 -0.00968496
0 0 -0.0110317
0 0 -0.0122391
0 0 -0.0132866
0 0 -0.0141595
0 0 -0.0148475
0 0 -0.0153433
0 0 -0.0156424
0 0 -0.0157424
0 0 -0.0156422
0 0 -0.0153429
0 0 -0.0148469
0 0 -0.0141588
0 0 -0.0132858
0 0 -0.0122382
0 0 -0.0110308
0 0 -0.009684
0 0 -0.00822582
0 0 -0.00669392
0 0 -0.00513842
0 0 -0.00362515
0 0 -0.00223882
0 0 -0.00108513
0 0 -0.000290502
0 0 0
0 0 0
0 0 -0.000175398
0 0 -0.000661859
0 0 -0.00137692
0 0 -0.00223916
0 0 -0.00317907
0 0 -0.00414228
0 0 -0.00508762
0 0 -0.00598446
0 0 -0.00681026
0 0 -0.00754866
0 0 -0.00818788
0 0 -0.00871959
0 0 -0.00913802
0 0 -0.00943928
0 0 -0.0096209
0 0 -0.00968155
0 0 -0.00962078
0 0 -0.00943903
0 0 -0.00913766
0 0 -0.00871913
0 0 -0.00818733
0 0 -0.00754806
0 0 -0.00680963
0 0 -0.00598382
0 0 -0.00508701
0 0 -0.00414173
0 0 -0.0031786
0 0 -0.0022388
0 0 -0.00137668
0 0 -0.000661735
0 0 -0.000175363
0 0 0
0 0 0
0 0 -8.03422e-05
0 0 -0.000311994
0 0 -0.000661854
0 0 -0.0010853
0 0 -0.00154567
0 0 -0.00201547
0 0 -0.00247458
0 0 -0.00290843
0 0 -0.00330655
0 0 -0.00366149
0 0 -0.00396802
0 0 -0.00422249
0 0 -0.00442243
0 0 -0.00456623
0 0 -0.00465286
0 0 -0.00468177
0 0 -0.00465279
0 0 -0.0045661
0 0 -0.00442225
0 0 -0.00422225
0 0 -0.00396774
0 0 -0.00366118
0 0 -0.00330622
0 0 -0.0029081
0 0 -0.00247427
0 0 -0.00201519
0 0 -0.00154542
0 0 -0.00108512
0 0 -0.00066173
0 0 -0.000311931
0 0 -8.03251e-05
0 0 0
0 0 0
0 0 -1.96663e-05
0 0 -8.03416e-05
0 0 -0.000175395
0 0 -0.000290548
0 0 -0.000415315
0 0 -0.000542063
0 0 -0.00066541
0 0 -0.000781538
0 0 -0.00088777
0 0 -0.000982234
0 0 -0.00106364
0 0 -0.0011311
0 0 -0.00118404
0 0 -0.00122207
0 0 -0.00124497
0 0 -0.00125261
0 0 -0.00124495
0 0 -0.00122204
0 0 -0.00118399
0 0 -0.00113103
0 0 -0.00106356
0 0 -0.000982147
0 0 -0.000887678
0 0 -0.000781444
0 0 -0.00066532
0 0 -0.000541981
0 0 -0.000415246
0 0 -0.000290495
0 0 -0.000175361
0 0 -8.03245e-05
0 0 -1.96619e-05
0 0 0
0 0 0
0 0 0
0 0 0
0 0 0
0 0 0
0 0 0
0 0 0
0 0 0
0 0 0
0 0 0
0 0 0
0 0 0
0 0 0
0 0 0
0 0 0
0 0 0
0 0 0
0 0 0
0 0 0
0 0 0
0 0 0
0 0 0
0 0 0
0 0 0
0 0 0
0 0 0
0 0 0
0 0 0
0 0 0
0 0 0
0 0 0
0 0 0
0 0 0
CELL_DATA 1024
SCALARS Stress float 1
LOOKUP_TABLE default
0
0
0
0
0
0
0
0
0
0
0
0
0
0
0
0
0
0
0
0
0
0
0
0
0
0
0
0
0
0
0
0
0.252111
0.0575358
-0.28337
-0.503244
-0.638619
-0.706802
-0.729418
-0.718435
-0.684459
-0.63378
-0.57174
-0.501607
-0.426096
-0.346881
-0.265296
-0.182172
-0.0981233
-0.0135879
0.0711399
0.155684
0.239784
0.322808
0.404266
0.482873
0.557618
0.625922
0.685903
0.732294
0.762033
0.761063
0.724286
0.468311
1.24588
0.693562
-0.0124798
-0.57846
-0.964697
-1.20881
-1.3423
-1.39475
-1.38703
-1.33571
-1.25275
-1.14705
-1.02534
-0.892238
-0.751452
-0.605134
-0.455261
-0.302541
-0.147977
0.00855515
0.166546
0.326614
0.488443
0.653061
0.820263
0.991827
1.16791
1.35198
1.54374
1.74307
1.90568
1.69684
2.9148
1.69064
0.573178
-0.355739
-1.04732
-1.52426
-1.82923
-1.99917
-2.0672
-2.0578
-1.99133
-1.88228
-1.74251
-1.58014
-1.40174
-1.21144
-1.01246
-0.806332
-0.594051
-0.375348
-0.149497
0.0852623
0.331364
0.592306
0.872903
1.17938
1.52026
1.90535
2.34339
2.83083
3.27879
3.50938
4.98472
3.01281
1.38131
0.0668591
-0.947091
-1.68677
-2.19645
-2.52104
-2.70012
-2.7667
-2.74745
-2.66318
-2.53039
-2.36117
-2.16507
-1.94826
-1.7155
-1.46879
-1.20935
-0.935944
-0.646775
-0.337475
-0.00303971
0.364669
0.774944
1.24101
1.77772
2.40217
3.12825
3.94577
4.81309
5.65725
7.25554
4.54508
2.37071
0.638331
-0.709504
-1.72448
-2.45727
-2.95784
-3.27225
-3.43901
-3.49109
-3.45419
-3.34954
-3.1928
-2.99642
-2.76868
-2.51557
-2.23977
-1.94218
-1.6208
-1.27189
-0.888804
-0.462786
0.0183055
0.569372
1.20933
1.9594
2.84338
3.87886
5.07648
6.43361
7.95646
9.57996
6.18821
3.47829
1.32412
-0.365352
-1.66014
-2.62356
-3.31157
-3.77535
-4.05868
-4.19904
-4.22682
-4.167
-4.03861
-3.85665
-3.63127
-3.36964
-3.07478
-2.74735
-2.38412
-1.97965
-1.52443
-1.00641
-0.408995
0.287546
1.10766
2.07884
3.23072
4.59317
6.1952
8.07088
10.2748
11.8546
7.85673
4.64747
2.08485
0.0605352
-1.51216
-2.70621
-3.58516
-4.20509
-4.61411
-4.85385
-4.95828
-4.95575
-4.86804
-4.71237
-4.50047
-4.24041
-3.93549
-3.58583
-3.18712
-2.73187
-2.20807
-1.60019
-0.887702
-0.0461924
0.954127
2.14643
3.56886
5.26225
7.27463
9.6654
12.5185
14.0057
9.48391
5.82553
2.88449
0.542404
-1.29689
-2.7153
-3.78227
-4.55886
-5.09705
-5.44182
-5.6303
-5.69347
-5.65545
-5.53521
-5.34579
-5.09588
-4.78889
-4.42434
-3.99668
-3.49659
-2.90947
-2.21666
-1.39387
-0.412261
0.762841
2.17104
3.85803
5.87596
8.28719
11.1685
14.6214
15.9817
11.0186
6.96923
3.68921
1.05658
-1.03089
-2.6606
-3.90726
-4.83579
-5.50165
-5.95264
-6.22842
-6.36215
-6.37977
-6.30162
-6.14171
-5.90914
-5.60725
-5.23485
-4.78523
-4.24718
-3.60377
-2.83335
-1.90814
-0.795217
0.545025
2.15793
4.09668
6.42254
9.20862
12.5435
16.537
17.7465
12.4217
8.04299
4.47002
1.5808
-0.729579
-2.55209
-3.9649
-5.03613
-5.82391
-6.37837
-6.74119
-6.94717
-7.02366
-6.99202
-6.86691
-6.65761
-6.36726
-5.9939
-5.52964
-4.96149
-4.27036
-3.43179
-2.41483
-1.18263
0.30881
2.1103
4.28131
6.89037
10.0186
13.7612
18.2328
19.2751
13.6649
9.01889
5.20265
2.09566
-0.407422
-2.39936
-3.96055
-5.16122
-6.06157
-6.71339
-7.1599
-7.4371
-7.57336
-7.59066
-7.50408
-7.32288
-7.04984
-6.68223
-6.21096
-5.62141
-4.89244
-3.99708
-2.90139
-1.56503
0.0600664
2.02943
4.40771
7.26933
10.7005
14.8011
19.6866
20.5503
14.7266
9.87541
5.86721
2.58466
-0.0771922
-2.2114
-3.89955
-5.21308
-6.21351
-6.95373
-7.478
-7.82306
-8.01792
-8.0849
-8.03923
-7.88995
-7.63942
-7.28405
-6.81366
-6.21207
-5.4563
-4.51706
-3.35778
-1.93496
-0.197
1.9156
4.47191
7.55044
11.2416
15.6471
20.883
21.5608
15.5923
10.5962
6.44841
3.03416
0.250178
-1.99638
-3.78723
-5.19435
-6.27983
-7.09715
-7.69106
-8.09867
-8.34926
-8.46517
-8.46158
-8.34716
-8.12375
-7.78691
-7.32541
-6.72165
-5.951
-4.98211
-3.77611
-2.28672
-0.459414
1.76881
4.47024
7.72707
11.6319
16.2887
21.8121
22.2991
16.2509
11.1694
6.93417
3.43354
0.565574
-1.76129
-3.62855
-5.10786
-6.2614
-7.1426
-7.79631
-8.25954
-8.56153
-8.72439
-8.76301
-8.68558
-8.49336
-8.18105
-7.73646
-7.14071
-6.36775
-5.38444
-4.14994
-2.6157
-0.724599
1.58899
4.40031
7.79392
11.8649
16.7178
22.4675
22.7607
16.696
11.5868
7.31622
3.77452
0.861886
-1.51219
-3.42808
-4.9568
-6.15994
-7.09043
-7.79271
-8.30337
-8.65128
-8.85804
-8.93811
-8.89905
-8.74151
-8.45938
-8.03959
-7.46216
-6.69982
-5.71797
-4.47419
-2.91798
-0.990317
1.3768
4.26063
7.74821
11.936
16.9302
22.8451
22.943
16.9228
11.8433
7.58854
4.05149
1.13356
-1.25386
-3.18997
-4.74439